 VARIABLES = X, Y, RHO, U, V, P, T, QX, QY, index1, index2
 ZONE  I =           21 , J =           21 DATAPACKING=BLOCK, VARLOCATION=([3-11]=CELLCENTERED)
 0.0000000000000000E+00   5.0000000000000003E-02   1.0000000000000001E-01   1.5000000000000002E-01   2.0000000000000001E-01   2.5000000000000000E-01
 3.0000000000000004E-01   3.5000000000000003E-01   4.0000000000000002E-01   4.5000000000000001E-01   5.0000000000000000E-01   5.5000000000000004E-01
 6.0000000000000009E-01   6.5000000000000002E-01   7.0000000000000007E-01   7.5000000000000000E-01   8.0000000000000004E-01   8.5000000000000009E-01
 9.0000000000000002E-01   9.5000000000000007E-01   1.0000000000000000E+00   0.0000000000000000E+00   5.0000000000000003E-02   1.0000000000000001E-01
 1.5000000000000002E-01   2.0000000000000001E-01   2.5000000000000000E-01   3.0000000000000004E-01   3.5000000000000003E-01   4.0000000000000002E-01
 4.5000000000000001E-01   5.0000000000000000E-01   5.5000000000000004E-01   6.0000000000000009E-01   6.5000000000000002E-01   7.0000000000000007E-01
 7.5000000000000000E-01   8.0000000000000004E-01   8.5000000000000009E-01   9.0000000000000002E-01   9.5000000000000007E-01   1.0000000000000000E+00
 0.0000000000000000E+00   5.0000000000000003E-02   1.0000000000000001E-01   1.5000000000000002E-01   2.0000000000000001E-01   2.5000000000000000E-01
 3.0000000000000004E-01   3.5000000000000003E-01   4.0000000000000002E-01   4.5000000000000001E-01   5.0000000000000000E-01   5.5000000000000004E-01
 6.0000000000000009E-01   6.5000000000000002E-01   7.0000000000000007E-01   7.5000000000000000E-01   8.0000000000000004E-01   8.5000000000000009E-01
 9.0000000000000002E-01   9.5000000000000007E-01   1.0000000000000000E+00   0.0000000000000000E+00   5.0000000000000003E-02   1.0000000000000001E-01
 1.5000000000000002E-01   2.0000000000000001E-01   2.5000000000000000E-01   3.0000000000000004E-01   3.5000000000000003E-01   4.0000000000000002E-01
 4.5000000000000001E-01   5.0000000000000000E-01   5.5000000000000004E-01   6.0000000000000009E-01   6.5000000000000002E-01   7.0000000000000007E-01
 7.5000000000000000E-01   8.0000000000000004E-01   8.5000000000000009E-01   9.0000000000000002E-01   9.5000000000000007E-01   1.0000000000000000E+00
 0.0000000000000000E+00   5.0000000000000003E-02   1.0000000000000001E-01   1.5000000000000002E-01   2.0000000000000001E-01   2.5000000000000000E-01
 3.0000000000000004E-01   3.5000000000000003E-01   4.0000000000000002E-01   4.5000000000000001E-01   5.0000000000000000E-01   5.5000000000000004E-01
 6.0000000000000009E-01   6.5000000000000002E-01   7.0000000000000007E-01   7.5000000000000000E-01   8.0000000000000004E-01   8.5000000000000009E-01
 9.0000000000000002E-01   9.5000000000000007E-01   1.0000000000000000E+00   0.0000000000000000E+00   5.0000000000000003E-02   1.0000000000000001E-01
 1.5000000000000002E-01   2.0000000000000001E-01   2.5000000000000000E-01   3.0000000000000004E-01   3.5000000000000003E-01   4.0000000000000002E-01
 4.5000000000000001E-01   5.0000000000000000E-01   5.5000000000000004E-01   6.0000000000000009E-01   6.5000000000000002E-01   7.0000000000000007E-01
 7.5000000000000000E-01   8.0000000000000004E-01   8.5000000000000009E-01   9.0000000000000002E-01   9.5000000000000007E-01   1.0000000000000000E+00
 0.0000000000000000E+00   5.0000000000000003E-02   1.0000000000000001E-01   1.5000000000000002E-01   2.0000000000000001E-01   2.5000000000000000E-01
 3.0000000000000004E-01   3.5000000000000003E-01   4.0000000000000002E-01   4.5000000000000001E-01   5.0000000000000000E-01   5.5000000000000004E-01
 6.0000000000000009E-01   6.5000000000000002E-01   7.0000000000000007E-01   7.5000000000000000E-01   8.0000000000000004E-01   8.5000000000000009E-01
 9.0000000000000002E-01   9.5000000000000007E-01   1.0000000000000000E+00   0.0000000000000000E+00   5.0000000000000003E-02   1.0000000000000001E-01
 1.5000000000000002E-01   2.0000000000000001E-01   2.5000000000000000E-01   3.0000000000000004E-01   3.5000000000000003E-01   4.0000000000000002E-01
 4.5000000000000001E-01   5.0000000000000000E-01   5.5000000000000004E-01   6.0000000000000009E-01   6.5000000000000002E-01   7.0000000000000007E-01
 7.5000000000000000E-01   8.0000000000000004E-01   8.5000000000000009E-01   9.0000000000000002E-01   9.5000000000000007E-01   1.0000000000000000E+00
 0.0000000000000000E+00   5.0000000000000003E-02   1.0000000000000001E-01   1.5000000000000002E-01   2.0000000000000001E-01   2.5000000000000000E-01
 3.0000000000000004E-01   3.5000000000000003E-01   4.0000000000000002E-01   4.5000000000000001E-01   5.0000000000000000E-01   5.5000000000000004E-01
 6.0000000000000009E-01   6.5000000000000002E-01   7.0000000000000007E-01   7.5000000000000000E-01   8.0000000000000004E-01   8.5000000000000009E-01
 9.0000000000000002E-01   9.5000000000000007E-01   1.0000000000000000E+00   0.0000000000000000E+00   5.0000000000000003E-02   1.0000000000000001E-01
 1.5000000000000002E-01   2.0000000000000001E-01   2.5000000000000000E-01   3.0000000000000004E-01   3.5000000000000003E-01   4.0000000000000002E-01
 4.5000000000000001E-01   5.0000000000000000E-01   5.5000000000000004E-01   6.0000000000000009E-01   6.5000000000000002E-01   7.0000000000000007E-01
 7.5000000000000000E-01   8.0000000000000004E-01   8.5000000000000009E-01   9.0000000000000002E-01   9.5000000000000007E-01   1.0000000000000000E+00
 0.0000000000000000E+00   5.0000000000000003E-02   1.0000000000000001E-01   1.5000000000000002E-01   2.0000000000000001E-01   2.5000000000000000E-01
 3.0000000000000004E-01   3.5000000000000003E-01   4.0000000000000002E-01   4.5000000000000001E-01   5.0000000000000000E-01   5.5000000000000004E-01
 6.0000000000000009E-01   6.5000000000000002E-01   7.0000000000000007E-01   7.5000000000000000E-01   8.0000000000000004E-01   8.5000000000000009E-01
 9.0000000000000002E-01   9.5000000000000007E-01   1.0000000000000000E+00   0.0000000000000000E+00   5.0000000000000003E-02   1.0000000000000001E-01
 1.5000000000000002E-01   2.0000000000000001E-01   2.5000000000000000E-01   3.0000000000000004E-01   3.5000000000000003E-01   4.0000000000000002E-01
 4.5000000000000001E-01   5.0000000000000000E-01   5.5000000000000004E-01   6.0000000000000009E-01   6.5000000000000002E-01   7.0000000000000007E-01
 7.5000000000000000E-01   8.0000000000000004E-01   8.5000000000000009E-01   9.0000000000000002E-01   9.5000000000000007E-01   1.0000000000000000E+00
 0.0000000000000000E+00   5.0000000000000003E-02   1.0000000000000001E-01   1.5000000000000002E-01   2.0000000000000001E-01   2.5000000000000000E-01
 3.0000000000000004E-01   3.5000000000000003E-01   4.0000000000000002E-01   4.5000000000000001E-01   5.0000000000000000E-01   5.5000000000000004E-01
 6.0000000000000009E-01   6.5000000000000002E-01   7.0000000000000007E-01   7.5000000000000000E-01   8.0000000000000004E-01   8.5000000000000009E-01
 9.0000000000000002E-01   9.5000000000000007E-01   1.0000000000000000E+00   0.0000000000000000E+00   5.0000000000000003E-02   1.0000000000000001E-01
 1.5000000000000002E-01   2.0000000000000001E-01   2.5000000000000000E-01   3.0000000000000004E-01   3.5000000000000003E-01   4.0000000000000002E-01
 4.5000000000000001E-01   5.0000000000000000E-01   5.5000000000000004E-01   6.0000000000000009E-01   6.5000000000000002E-01   7.0000000000000007E-01
 7.5000000000000000E-01   8.0000000000000004E-01   8.5000000000000009E-01   9.0000000000000002E-01   9.5000000000000007E-01   1.0000000000000000E+00
 0.0000000000000000E+00   5.0000000000000003E-02   1.0000000000000001E-01   1.5000000000000002E-01   2.0000000000000001E-01   2.5000000000000000E-01
 3.0000000000000004E-01   3.5000000000000003E-01   4.0000000000000002E-01   4.5000000000000001E-01   5.0000000000000000E-01   5.5000000000000004E-01
 6.0000000000000009E-01   6.5000000000000002E-01   7.0000000000000007E-01   7.5000000000000000E-01   8.0000000000000004E-01   8.5000000000000009E-01
 9.0000000000000002E-01   9.5000000000000007E-01   1.0000000000000000E+00   0.0000000000000000E+00   5.0000000000000003E-02   1.0000000000000001E-01
 1.5000000000000002E-01   2.0000000000000001E-01   2.5000000000000000E-01   3.0000000000000004E-01   3.5000000000000003E-01   4.0000000000000002E-01
 4.5000000000000001E-01   5.0000000000000000E-01   5.5000000000000004E-01   6.0000000000000009E-01   6.5000000000000002E-01   7.0000000000000007E-01
 7.5000000000000000E-01   8.0000000000000004E-01   8.5000000000000009E-01   9.0000000000000002E-01   9.5000000000000007E-01   1.0000000000000000E+00
 0.0000000000000000E+00   5.0000000000000003E-02   1.0000000000000001E-01   1.5000000000000002E-01   2.0000000000000001E-01   2.5000000000000000E-01
 3.0000000000000004E-01   3.5000000000000003E-01   4.0000000000000002E-01   4.5000000000000001E-01   5.0000000000000000E-01   5.5000000000000004E-01
 6.0000000000000009E-01   6.5000000000000002E-01   7.0000000000000007E-01   7.5000000000000000E-01   8.0000000000000004E-01   8.5000000000000009E-01
 9.0000000000000002E-01   9.5000000000000007E-01   1.0000000000000000E+00   0.0000000000000000E+00   5.0000000000000003E-02   1.0000000000000001E-01
 1.5000000000000002E-01   2.0000000000000001E-01   2.5000000000000000E-01   3.0000000000000004E-01   3.5000000000000003E-01   4.0000000000000002E-01
 4.5000000000000001E-01   5.0000000000000000E-01   5.5000000000000004E-01   6.0000000000000009E-01   6.5000000000000002E-01   7.0000000000000007E-01
 7.5000000000000000E-01   8.0000000000000004E-01   8.5000000000000009E-01   9.0000000000000002E-01   9.5000000000000007E-01   1.0000000000000000E+00
 0.0000000000000000E+00   5.0000000000000003E-02   1.0000000000000001E-01   1.5000000000000002E-01   2.0000000000000001E-01   2.5000000000000000E-01
 3.0000000000000004E-01   3.5000000000000003E-01   4.0000000000000002E-01   4.5000000000000001E-01   5.0000000000000000E-01   5.5000000000000004E-01
 6.0000000000000009E-01   6.5000000000000002E-01   7.0000000000000007E-01   7.5000000000000000E-01   8.0000000000000004E-01   8.5000000000000009E-01
 9.0000000000000002E-01   9.5000000000000007E-01   1.0000000000000000E+00   0.0000000000000000E+00   5.0000000000000003E-02   1.0000000000000001E-01
 1.5000000000000002E-01   2.0000000000000001E-01   2.5000000000000000E-01   3.0000000000000004E-01   3.5000000000000003E-01   4.0000000000000002E-01
 4.5000000000000001E-01   5.0000000000000000E-01   5.5000000000000004E-01   6.0000000000000009E-01   6.5000000000000002E-01   7.0000000000000007E-01
 7.5000000000000000E-01   8.0000000000000004E-01   8.5000000000000009E-01   9.0000000000000002E-01   9.5000000000000007E-01   1.0000000000000000E+00
 0.0000000000000000E+00   5.0000000000000003E-02   1.0000000000000001E-01   1.5000000000000002E-01   2.0000000000000001E-01   2.5000000000000000E-01
 3.0000000000000004E-01   3.5000000000000003E-01   4.0000000000000002E-01   4.5000000000000001E-01   5.0000000000000000E-01   5.5000000000000004E-01
 6.0000000000000009E-01   6.5000000000000002E-01   7.0000000000000007E-01   7.5000000000000000E-01   8.0000000000000004E-01   8.5000000000000009E-01
 9.0000000000000002E-01   9.5000000000000007E-01   1.0000000000000000E+00
 0.0000000000000000E+00   0.0000000000000000E+00   0.0000000000000000E+00   0.0000000000000000E+00   0.0000000000000000E+00   0.0000000000000000E+00
 0.0000000000000000E+00   0.0000000000000000E+00   0.0000000000000000E+00   0.0000000000000000E+00   0.0000000000000000E+00   0.0000000000000000E+00
 0.0000000000000000E+00   0.0000000000000000E+00   0.0000000000000000E+00   0.0000000000000000E+00   0.0000000000000000E+00   0.0000000000000000E+00
 0.0000000000000000E+00   0.0000000000000000E+00   0.0000000000000000E+00   5.0000000000000003E-02   5.0000000000000003E-02   5.0000000000000003E-02
 5.0000000000000003E-02   5.0000000000000003E-02   5.0000000000000003E-02   5.0000000000000003E-02   5.0000000000000003E-02   5.0000000000000003E-02
 5.0000000000000003E-02   5.0000000000000003E-02   5.0000000000000003E-02   5.0000000000000003E-02   5.0000000000000003E-02   5.0000000000000003E-02
 5.0000000000000003E-02   5.0000000000000003E-02   5.0000000000000003E-02   5.0000000000000003E-02   5.0000000000000003E-02   5.0000000000000003E-02
 1.0000000000000001E-01   1.0000000000000001E-01   1.0000000000000001E-01   1.0000000000000001E-01   1.0000000000000001E-01   1.0000000000000001E-01
 1.0000000000000001E-01   1.0000000000000001E-01   1.0000000000000001E-01   1.0000000000000001E-01   1.0000000000000001E-01   1.0000000000000001E-01
 1.0000000000000001E-01   1.0000000000000001E-01   1.0000000000000001E-01   1.0000000000000001E-01   1.0000000000000001E-01   1.0000000000000001E-01
 1.0000000000000001E-01   1.0000000000000001E-01   1.0000000000000001E-01   1.5000000000000002E-01   1.5000000000000002E-01   1.5000000000000002E-01
 1.5000000000000002E-01   1.5000000000000002E-01   1.5000000000000002E-01   1.5000000000000002E-01   1.5000000000000002E-01   1.5000000000000002E-01
 1.5000000000000002E-01   1.5000000000000002E-01   1.5000000000000002E-01   1.5000000000000002E-01   1.5000000000000002E-01   1.5000000000000002E-01
 1.5000000000000002E-01   1.5000000000000002E-01   1.5000000000000002E-01   1.5000000000000002E-01   1.5000000000000002E-01   1.5000000000000002E-01
 2.0000000000000001E-01   2.0000000000000001E-01   2.0000000000000001E-01   2.0000000000000001E-01   2.0000000000000001E-01   2.0000000000000001E-01
 2.0000000000000001E-01   2.0000000000000001E-01   2.0000000000000001E-01   2.0000000000000001E-01   2.0000000000000001E-01   2.0000000000000001E-01
 2.0000000000000001E-01   2.0000000000000001E-01   2.0000000000000001E-01   2.0000000000000001E-01   2.0000000000000001E-01   2.0000000000000001E-01
 2.0000000000000001E-01   2.0000000000000001E-01   2.0000000000000001E-01   2.5000000000000000E-01   2.5000000000000000E-01   2.5000000000000000E-01
 2.5000000000000000E-01   2.5000000000000000E-01   2.5000000000000000E-01   2.5000000000000000E-01   2.5000000000000000E-01   2.5000000000000000E-01
 2.5000000000000000E-01   2.5000000000000000E-01   2.5000000000000000E-01   2.5000000000000000E-01   2.5000000000000000E-01   2.5000000000000000E-01
 2.5000000000000000E-01   2.5000000000000000E-01   2.5000000000000000E-01   2.5000000000000000E-01   2.5000000000000000E-01   2.5000000000000000E-01
 3.0000000000000004E-01   3.0000000000000004E-01   3.0000000000000004E-01   3.0000000000000004E-01   3.0000000000000004E-01   3.0000000000000004E-01
 3.0000000000000004E-01   3.0000000000000004E-01   3.0000000000000004E-01   3.0000000000000004E-01   3.0000000000000004E-01   3.0000000000000004E-01
 3.0000000000000004E-01   3.0000000000000004E-01   3.0000000000000004E-01   3.0000000000000004E-01   3.0000000000000004E-01   3.0000000000000004E-01
 3.0000000000000004E-01   3.0000000000000004E-01   3.0000000000000004E-01   3.5000000000000003E-01   3.5000000000000003E-01   3.5000000000000003E-01
 3.5000000000000003E-01   3.5000000000000003E-01   3.5000000000000003E-01   3.5000000000000003E-01   3.5000000000000003E-01   3.5000000000000003E-01
 3.5000000000000003E-01   3.5000000000000003E-01   3.5000000000000003E-01   3.5000000000000003E-01   3.5000000000000003E-01   3.5000000000000003E-01
 3.5000000000000003E-01   3.5000000000000003E-01   3.5000000000000003E-01   3.5000000000000003E-01   3.5000000000000003E-01   3.5000000000000003E-01
 4.0000000000000002E-01   4.0000000000000002E-01   4.0000000000000002E-01   4.0000000000000002E-01   4.0000000000000002E-01   4.0000000000000002E-01
 4.0000000000000002E-01   4.0000000000000002E-01   4.0000000000000002E-01   4.0000000000000002E-01   4.0000000000000002E-01   4.0000000000000002E-01
 4.0000000000000002E-01   4.0000000000000002E-01   4.0000000000000002E-01   4.0000000000000002E-01   4.0000000000000002E-01   4.0000000000000002E-01
 4.0000000000000002E-01   4.0000000000000002E-01   4.0000000000000002E-01   4.5000000000000001E-01   4.5000000000000001E-01   4.5000000000000001E-01
 4.5000000000000001E-01   4.5000000000000001E-01   4.5000000000000001E-01   4.5000000000000001E-01   4.5000000000000001E-01   4.5000000000000001E-01
 4.5000000000000001E-01   4.5000000000000001E-01   4.5000000000000001E-01   4.5000000000000001E-01   4.5000000000000001E-01   4.5000000000000001E-01
 4.5000000000000001E-01   4.5000000000000001E-01   4.5000000000000001E-01   4.5000000000000001E-01   4.5000000000000001E-01   4.5000000000000001E-01
 5.0000000000000000E-01   5.0000000000000000E-01   5.0000000000000000E-01   5.0000000000000000E-01   5.0000000000000000E-01   5.0000000000000000E-01
 5.0000000000000000E-01   5.0000000000000000E-01   5.0000000000000000E-01   5.0000000000000000E-01   5.0000000000000000E-01   5.0000000000000000E-01
 5.0000000000000000E-01   5.0000000000000000E-01   5.0000000000000000E-01   5.0000000000000000E-01   5.0000000000000000E-01   5.0000000000000000E-01
 5.0000000000000000E-01   5.0000000000000000E-01   5.0000000000000000E-01   5.5000000000000004E-01   5.5000000000000004E-01   5.5000000000000004E-01
 5.5000000000000004E-01   5.5000000000000004E-01   5.5000000000000004E-01   5.5000000000000004E-01   5.5000000000000004E-01   5.5000000000000004E-01
 5.5000000000000004E-01   5.5000000000000004E-01   5.5000000000000004E-01   5.5000000000000004E-01   5.5000000000000004E-01   5.5000000000000004E-01
 5.5000000000000004E-01   5.5000000000000004E-01   5.5000000000000004E-01   5.5000000000000004E-01   5.5000000000000004E-01   5.5000000000000004E-01
 6.0000000000000009E-01   6.0000000000000009E-01   6.0000000000000009E-01   6.0000000000000009E-01   6.0000000000000009E-01   6.0000000000000009E-01
 6.0000000000000009E-01   6.0000000000000009E-01   6.0000000000000009E-01   6.0000000000000009E-01   6.0000000000000009E-01   6.0000000000000009E-01
 6.0000000000000009E-01   6.0000000000000009E-01   6.0000000000000009E-01   6.0000000000000009E-01   6.0000000000000009E-01   6.0000000000000009E-01
 6.0000000000000009E-01   6.0000000000000009E-01   6.0000000000000009E-01   6.5000000000000002E-01   6.5000000000000002E-01   6.5000000000000002E-01
 6.5000000000000002E-01   6.5000000000000002E-01   6.5000000000000002E-01   6.5000000000000002E-01   6.5000000000000002E-01   6.5000000000000002E-01
 6.5000000000000002E-01   6.5000000000000002E-01   6.5000000000000002E-01   6.5000000000000002E-01   6.5000000000000002E-01   6.5000000000000002E-01
 6.5000000000000002E-01   6.5000000000000002E-01   6.5000000000000002E-01   6.5000000000000002E-01   6.5000000000000002E-01   6.5000000000000002E-01
 7.0000000000000007E-01   7.0000000000000007E-01   7.0000000000000007E-01   7.0000000000000007E-01   7.0000000000000007E-01   7.0000000000000007E-01
 7.0000000000000007E-01   7.0000000000000007E-01   7.0000000000000007E-01   7.0000000000000007E-01   7.0000000000000007E-01   7.0000000000000007E-01
 7.0000000000000007E-01   7.0000000000000007E-01   7.0000000000000007E-01   7.0000000000000007E-01   7.0000000000000007E-01   7.0000000000000007E-01
 7.0000000000000007E-01   7.0000000000000007E-01   7.0000000000000007E-01   7.5000000000000000E-01   7.5000000000000000E-01   7.5000000000000000E-01
 7.5000000000000000E-01   7.5000000000000000E-01   7.5000000000000000E-01   7.5000000000000000E-01   7.5000000000000000E-01   7.5000000000000000E-01
 7.5000000000000000E-01   7.5000000000000000E-01   7.5000000000000000E-01   7.5000000000000000E-01   7.5000000000000000E-01   7.5000000000000000E-01
 7.5000000000000000E-01   7.5000000000000000E-01   7.5000000000000000E-01   7.5000000000000000E-01   7.5000000000000000E-01   7.5000000000000000E-01
 8.0000000000000004E-01   8.0000000000000004E-01   8.0000000000000004E-01   8.0000000000000004E-01   8.0000000000000004E-01   8.0000000000000004E-01
 8.0000000000000004E-01   8.0000000000000004E-01   8.0000000000000004E-01   8.0000000000000004E-01   8.0000000000000004E-01   8.0000000000000004E-01
 8.0000000000000004E-01   8.0000000000000004E-01   8.0000000000000004E-01   8.0000000000000004E-01   8.0000000000000004E-01   8.0000000000000004E-01
 8.0000000000000004E-01   8.0000000000000004E-01   8.0000000000000004E-01   8.5000000000000009E-01   8.5000000000000009E-01   8.5000000000000009E-01
 8.5000000000000009E-01   8.5000000000000009E-01   8.5000000000000009E-01   8.5000000000000009E-01   8.5000000000000009E-01   8.5000000000000009E-01
 8.5000000000000009E-01   8.5000000000000009E-01   8.5000000000000009E-01   8.5000000000000009E-01   8.5000000000000009E-01   8.5000000000000009E-01
 8.5000000000000009E-01   8.5000000000000009E-01   8.5000000000000009E-01   8.5000000000000009E-01   8.5000000000000009E-01   8.5000000000000009E-01
 9.0000000000000002E-01   9.0000000000000002E-01   9.0000000000000002E-01   9.0000000000000002E-01   9.0000000000000002E-01   9.0000000000000002E-01
 9.0000000000000002E-01   9.0000000000000002E-01   9.0000000000000002E-01   9.0000000000000002E-01   9.0000000000000002E-01   9.0000000000000002E-01
 9.0000000000000002E-01   9.0000000000000002E-01   9.0000000000000002E-01   9.0000000000000002E-01   9.0000000000000002E-01   9.0000000000000002E-01
 9.0000000000000002E-01   9.0000000000000002E-01   9.0000000000000002E-01   9.5000000000000007E-01   9.5000000000000007E-01   9.5000000000000007E-01
 9.5000000000000007E-01   9.5000000000000007E-01   9.5000000000000007E-01   9.5000000000000007E-01   9.5000000000000007E-01   9.5000000000000007E-01
 9.5000000000000007E-01   9.5000000000000007E-01   9.5000000000000007E-01   9.5000000000000007E-01   9.5000000000000007E-01   9.5000000000000007E-01
 9.5000000000000007E-01   9.5000000000000007E-01   9.5000000000000007E-01   9.5000000000000007E-01   9.5000000000000007E-01   9.5000000000000007E-01
 1.0000000000000000E+00   1.0000000000000000E+00   1.0000000000000000E+00   1.0000000000000000E+00   1.0000000000000000E+00   1.0000000000000000E+00
 1.0000000000000000E+00   1.0000000000000000E+00   1.0000000000000000E+00   1.0000000000000000E+00   1.0000000000000000E+00   1.0000000000000000E+00
 1.0000000000000000E+00   1.0000000000000000E+00   1.0000000000000000E+00   1.0000000000000000E+00   1.0000000000000000E+00   1.0000000000000000E+00
 1.0000000000000000E+00   1.0000000000000000E+00   1.0000000000000000E+00
 1.0118860090323252E+00   1.0346047942072711E+00   1.0540601530143474E+00   1.0684071306419360E+00   1.0764759199557716E+00   1.0764759179884398E+00
 1.0684071266077406E+00   1.0540601463489838E+00   1.0346047848130089E+00   1.0118859970317091E+00   9.8807576229611682E-01   9.6536652962760117E-01
 9.4591935036165375E-01   9.3159001755869064E-01   9.2352279412019767E-01   9.2352279911181423E-01   9.3159002628866838E-01   9.4591936317162373E-01
 9.6536654423744128E-01   9.8807577696571436E-01   1.0266991627046667E+00   1.0776690533791258E+00   1.1213230634822204E+00   1.1534995555803689E+00
 1.1716044727540320E+00   1.1716044684349685E+00   1.1534995466361602E+00   1.1213230486979451E+00   1.0776690324186025E+00   1.0266991360802078E+00
 9.7327305425435817E-01   9.2231148170866795E-01   8.7866618928217155E-01   8.4650771423070970E-01   8.2840192168691973E-01   8.2840193273542606E-01
 8.4650773363182719E-01   8.7866621789361321E-01   9.2231151438891334E-01   9.7327308687854619E-01   1.0390065736190512E+00   1.1134442950343399E+00
 1.1771981162405836E+00   1.2241894628341665E+00   1.2506314180059517E+00   1.2506314115641808E+00   1.2241894497867365E+00   1.1771980947156848E+00
 1.1134442644293157E+00   1.0390065347540598E+00   9.6097850622621317E-01   8.8655006799923353E-01   8.2280482522300047E-01   7.7583596440858515E-01
 7.4938852419013524E-01   7.4938854034208202E-01   7.7583599269574166E-01   8.2280486691863419E-01   8.8655011559282193E-01   9.6097855376069174E-01
 1.0475768408486090E+00   1.1383607443372405E+00   1.2161155234330927E+00   1.2734220446043274E+00   1.3056678360543037E+00   1.3056678283053902E+00
 1.2734220287862674E+00   1.2161154973329509E+00   1.1383607070409720E+00   1.0475767935488181E+00   9.5241560985675078E-01   8.6164047326248883E-01
 7.8389309395707607E-01   7.2661256338893676E-01   6.9435620129151887E-01   6.9435622080833037E-01   7.2661259795228295E-01   7.8389314475667937E-01
 8.6164053138145125E-01   9.5241566781035580E-01   1.0519602315987524E+00   1.1510987755930560E+00   1.2360073696181355E+00   1.2985886010700445E+00
 1.3338012423238728E+00   1.3338012339037550E+00   1.2985885838545805E+00   1.2360073411505439E+00   1.1510987348248465E+00   1.0519601799406375E+00
 9.4804139880068683E-01   8.4891103709453641E-01   7.6400706734018820E-01   7.0145252353070320E-01   6.6622503940309941E-01   6.6622506072620180E-01
 7.0145256128026900E-01   7.6400712274113192E-01   8.4891110046248097E-01   9.4804146202505701E-01   1.0502010813791880E+00   1.1459900938302003E+00
 1.2280302563252441E+00   1.2884973976727687E+00   1.3225206319410625E+00   1.3225206238494320E+00   1.2884973811077689E+00   1.2280302289647327E+00
 1.1459900547183326E+00   1.0502010316562804E+00   9.4979332627571611E-01   8.5401249569729953E-01   7.7197771931269443E-01   7.1153633338710542E-01
 6.7749971158453848E-01   6.7749973215010373E-01   7.1153636978021284E-01   7.7197777274783830E-01   8.5401255682198285E-01   9.4979338729430407E-01
 1.0438281855836762E+00   1.1274596323395281E+00   1.1990869670170468E+00   1.2518818558086020E+00   1.2815892968107014E+00   1.2815892897462775E+00
 1.2518818411017452E+00   1.1990869430380722E+00   1.1274595981979643E+00   1.0438281421795066E+00   9.5616583287764112E-01   8.7254489829646553E-01
 8.0092819050350694E-01   7.4816048319730621E-01   7.1844711571638642E-01   7.1844713364173995E-01   7.4816051505804482E-01   8.0092823717607442E-01
 8.7254495164271761E-01   9.5616588612702236E-01   1.0332417728565217E+00   1.0966921947948105E+00   1.1510352718639381E+00   1.1910908303520407E+00
 1.2136275752068735E+00   1.2136275697511794E+00   1.1910908193414214E+00   1.1510352537847259E+00   1.0966921689155822E+00   1.0332417399904685E+00
 9.6673239772057107E-01   9.0328996142395857E-01   8.4895372905639621E-01   8.0891675305807764E-01   7.8637520848431486E-01   7.8637522205731125E-01
 8.0891677720244404E-01   8.4895376442931436E-01   9.0329000186166652E-01   9.6673243807373244E-01   1.0195224543851289E+00   1.0568044889645214E+00
 1.0887356210938310E+00   1.1122733593524134E+00   1.1255174822541330E+00   1.1255174790561757E+00   1.1122733528802353E+00   1.0887356105396184E+00
 1.0568044737886659E+00   1.0195224351684065E+00   9.8044607965343933E-01   9.4317321415511501E-01   9.1125205897507555E-01   8.8773130324640037E-01
 8.7448901148440705E-01   8.7448901940845192E-01   8.8773131737857258E-01   9.1125207966564259E-01   9.4317323782073903E-01   9.8044610323744419E-01
 1.0039788090838666E+00   1.0116121525127733E+00   1.0181506608921480E+00   1.0229741411855100E+00   1.0256856571032598E+00   1.0256856564680836E+00
 1.0229741400175278E+00   1.0181506587967677E+00   1.0116121495055839E+00   1.0039788053314025E+00   9.9598169496572719E-01   9.8835685229376258E-01
 9.8182736031630957E-01   9.7701951843326684E-01   9.7431056958959394E-01   9.7431057117365083E-01   9.7701952122715097E-01   9.8182736445465624E-01
 9.8835685705561360E-01   9.9598169963644445E-01   9.8807567005377051E-01   9.6536614400469145E-01   9.4591760965119087E-01   9.3158726565463224E-01
 9.2351928001278194E-01   9.2351928203655298E-01   9.3158726969005656E-01   9.4591761626617665E-01   9.6536615341216336E-01   9.8807568205795848E-01
 1.0118861037498224E+00   1.0346051889490671E+00   1.0540618855629547E+00   1.0684098990114739E+00   1.0764794379381104E+00   1.0764794330193637E+00
 1.0684098902689041E+00   1.0540618726900728E+00   1.0346051743266782E+00   1.0118860891116688E+00   9.7327295681176818E-01   9.2231111023720891E-01
 8.7866460927228174E-01   8.4650516053018188E-01   8.2839864754175629E-01   8.2839865198373042E-01   8.4650516946227561E-01   8.7866462403600210E-01
 9.2231113124082564E-01   9.7327298348196567E-01   1.0266992622174993E+00   1.0776694347778810E+00   1.1213246453332717E+00   1.1535021287906075E+00
 1.1716077536769343E+00   1.1716077427265630E+00   1.1535021092866651E+00   1.1213246166418789E+00   1.0776694021034141E+00   1.0266992295942279E+00
 9.6097841071965717E-01   8.8654969565895425E-01   8.2280322706767861E-01   7.7583339615622471E-01   7.4938522920815498E-01   7.4938523569173654E-01
 7.7583340910238185E-01   8.2280324859584741E-01   8.8654972623156603E-01   9.6097844953221445E-01   1.0390066744703874E+00   1.1134446828445035E+00
 1.1771997247380932E+00   1.2241920554469434E+00   1.2506347238627069E+00   1.2506347077383926E+00   1.2241920270258200E+00   1.1771996829586622E+00
 1.1134446352037317E+00   1.0390066268695377E+00   9.5241552607444846E-01   8.6164014347156082E-01   7.8389166047034287E-01   7.2661025837096616E-01
 6.9435322404787969E-01   6.9435323180403707E-01   7.2661027424421187E-01   7.8389168664666953E-01   8.6164018081225247E-01   9.5241557338868577E-01
 1.0475769315451264E+00   1.1383610939483597E+00   1.2161169728640895E+00   1.2734243774094511E+00   1.3056708269389563E+00   1.3056708074376602E+00
 1.2734243428070915E+00   1.2161169220339481E+00   1.1383610358659291E+00   1.0475768735848296E+00   9.4804132643871075E-01   8.4891074199103633E-01
 7.6400578412988496E-01   7.0145047839075148E-01   6.6622238045350679E-01   6.6622238893669838E-01   7.0145049573224105E-01   7.6400581259533984E-01
 8.4891078261800079E-01   9.4804137804040722E-01   1.0519603124284138E+00   1.1510990923714128E+00   1.2360086724319408E+00   1.2985906746298927E+00
 1.3338039156736574E+00   1.3338038944067729E+00   1.2985906368673699E+00   1.2360086169873645E+00   1.1510990289210856E+00   1.0519602491452418E+00
 9.4979327193355700E-01   8.5401227217337483E-01   7.7197674361238522E-01   7.1153477756557792E-01   6.7749767762186064E-01   6.7749768576291947E-01
 7.1153479422465937E-01   7.7197677102094808E-01   8.5401231137357159E-01   9.4979332174750208E-01   1.0502011436777783E+00   1.1459903380039345E+00
 1.2280312522076584E+00   1.2884989801258941E+00   1.3225226807289698E+00   1.3225226602342379E+00   1.2884989437542105E+00   1.2280311987934371E+00