 VARIABLES = X, Y, RHO, U, V, P, T, QX, QY, index1, index2
 ZONE  I =           21 , J =           21 DATAPACKING=BLOCK, VARLOCATION=([3-11]=CELLCENTERED)
 0.0000000000000000E+00   5.0000000000000003E-02   1.0000000000000001E-01   1.5000000000000002E-01   2.0000000000000001E-01   2.5000000000000000E-01
 3.0000000000000004E-01   3.5000000000000003E-01   4.0000000000000002E-01   4.5000000000000001E-01   5.0000000000000000E-01   5.5000000000000004E-01
 6.0000000000000009E-01   6.5000000000000002E-01   7.0000000000000007E-01   7.5000000000000000E-01   8.0000000000000004E-01   8.5000000000000009E-01
 9.0000000000000002E-01   9.5000000000000007E-01   1.0000000000000000E+00   0.0000000000000000E+00   5.0000000000000003E-02   1.0000000000000001E-01
 1.5000000000000002E-01   2.0000000000000001E-01   2.5000000000000000E-01   3.0000000000000004E-01   3.5000000000000003E-01   4.0000000000000002E-01
 4.5000000000000001E-01   5.0000000000000000E-01   5.5000000000000004E-01   6.0000000000000009E-01   6.5000000000000002E-01   7.0000000000000007E-01
 7.5000000000000000E-01   8.0000000000000004E-01   8.5000000000000009E-01   9.0000000000000002E-01   9.5000000000000007E-01   1.0000000000000000E+00
 0.0000000000000000E+00   5.0000000000000003E-02   1.0000000000000001E-01   1.5000000000000002E-01   2.0000000000000001E-01   2.5000000000000000E-01
 3.0000000000000004E-01   3.5000000000000003E-01   4.0000000000000002E-01   4.5000000000000001E-01   5.0000000000000000E-01   5.5000000000000004E-01
 6.0000000000000009E-01   6.5000000000000002E-01   7.0000000000000007E-01   7.5000000000000000E-01   8.0000000000000004E-01   8.5000000000000009E-01
 9.0000000000000002E-01   9.5000000000000007E-01   1.0000000000000000E+00   0.0000000000000000E+00   5.0000000000000003E-02   1.0000000000000001E-01
 1.5000000000000002E-01   2.0000000000000001E-01   2.5000000000000000E-01   3.0000000000000004E-01   3.5000000000000003E-01   4.0000000000000002E-01
 4.5000000000000001E-01   5.0000000000000000E-01   5.5000000000000004E-01   6.0000000000000009E-01   6.5000000000000002E-01   7.0000000000000007E-01
 7.5000000000000000E-01   8.0000000000000004E-01   8.5000000000000009E-01   9.0000000000000002E-01   9.5000000000000007E-01   1.0000000000000000E+00
 0.0000000000000000E+00   5.0000000000000003E-02   1.0000000000000001E-01   1.5000000000000002E-01   2.0000000000000001E-01   2.5000000000000000E-01
 3.0000000000000004E-01   3.5000000000000003E-01   4.0000000000000002E-01   4.5000000000000001E-01   5.0000000000000000E-01   5.5000000000000004E-01
 6.0000000000000009E-01   6.5000000000000002E-01   7.0000000000000007E-01   7.5000000000000000E-01   8.0000000000000004E-01   8.5000000000000009E-01
 9.0000000000000002E-01   9.5000000000000007E-01   1.0000000000000000E+00   0.0000000000000000E+00   5.0000000000000003E-02   1.0000000000000001E-01
 1.5000000000000002E-01   2.0000000000000001E-01   2.5000000000000000E-01   3.0000000000000004E-01   3.5000000000000003E-01   4.0000000000000002E-01
 4.5000000000000001E-01   5.0000000000000000E-01   5.5000000000000004E-01   6.0000000000000009E-01   6.5000000000000002E-01   7.0000000000000007E-01
 7.5000000000000000E-01   8.0000000000000004E-01   8.5000000000000009E-01   9.0000000000000002E-01   9.5000000000000007E-01   1.0000000000000000E+00
 0.0000000000000000E+00   5.0000000000000003E-02   1.0000000000000001E-01   1.5000000000000002E-01   2.0000000000000001E-01   2.5000000000000000E-01
 3.0000000000000004E-01   3.5000000000000003E-01   4.0000000000000002E-01   4.5000000000000001E-01   5.0000000000000000E-01   5.5000000000000004E-01
 6.0000000000000009E-01   6.5000000000000002E-01   7.0000000000000007E-01   7.5000000000000000E-01   8.0000000000000004E-01   8.5000000000000009E-01
 9.0000000000000002E-01   9.5000000000000007E-01   1.0000000000000000E+00   0.0000000000000000E+00   5.0000000000000003E-02   1.0000000000000001E-01
 1.5000000000000002E-01   2.0000000000000001E-01   2.5000000000000000E-01   3.0000000000000004E-01   3.5000000000000003E-01   4.0000000000000002E-01
 4.5000000000000001E-01   5.0000000000000000E-01   5.5000000000000004E-01   6.0000000000000009E-01   6.5000000000000002E-01   7.0000000000000007E-01
 7.5000000000000000E-01   8.0000000000000004E-01   8.5000000000000009E-01   9.0000000000000002E-01   9.5000000000000007E-01   1.0000000000000000E+00
 0.0000000000000000E+00   5.0000000000000003E-02   1.0000000000000001E-01   1.5000000000000002E-01   2.0000000000000001E-01   2.5000000000000000E-01
 3.0000000000000004E-01   3.5000000000000003E-01   4.0000000000000002E-01   4.5000000000000001E-01   5.0000000000000000E-01   5.5000000000000004E-01
 6.0000000000000009E-01   6.5000000000000002E-01   7.0000000000000007E-01   7.5000000000000000E-01   8.0000000000000004E-01   8.5000000000000009E-01
 9.0000000000000002E-01   9.5000000000000007E-01   1.0000000000000000E+00   0.0000000000000000E+00   5.0000000000000003E-02   1.0000000000000001E-01
 1.5000000000000002E-01   2.0000000000000001E-01   2.5000000000000000E-01   3.0000000000000004E-01   3.5000000000000003E-01   4.0000000000000002E-01
 4.5000000000000001E-01   5.0000000000000000E-01   5.5000000000000004E-01   6.0000000000000009E-01   6.5000000000000002E-01   7.0000000000000007E-01
 7.5000000000000000E-01   8.0000000000000004E-01   8.5000000000000009E-01   9.0000000000000002E-01   9.5000000000000007E-01   1.0000000000000000E+00
 0.0000000000000000E+00   5.0000000000000003E-02   1.0000000000000001E-01   1.5000000000000002E-01   2.0000000000000001E-01   2.5000000000000000E-01
 3.0000000000000004E-01   3.5000000000000003E-01   4.0000000000000002E-01   4.5000000000000001E-01   5.0000000000000000E-01   5.5000000000000004E-01
 6.0000000000000009E-01   6.5000000000000002E-01   7.0000000000000007E-01   7.5000000000000000E-01   8.0000000000000004E-01   8.5000000000000009E-01
 9.0000000000000002E-01   9.5000000000000007E-01   1.0000000000000000E+00   0.0000000000000000E+00   5.0000000000000003E-02   1.0000000000000001E-01
 1.5000000000000002E-01   2.0000000000000001E-01   2.5000000000000000E-01   3.0000000000000004E-01   3.5000000000000003E-01   4.0000000000000002E-01
 4.5000000000000001E-01   5.0000000000000000E-01   5.5000000000000004E-01   6.0000000000000009E-01   6.5000000000000002E-01   7.0000000000000007E-01
 7.5000000000000000E-01   8.0000000000000004E-01   8.5000000000000009E-01   9.0000000000000002E-01   9.5000000000000007E-01   1.0000000000000000E+00
 0.0000000000000000E+00   5.0000000000000003E-02   1.0000000000000001E-01   1.5000000000000002E-01   2.0000000000000001E-01   2.5000000000000000E-01
 3.0000000000000004E-01   3.5000000000000003E-01   4.0000000000000002E-01   4.5000000000000001E-01   5.0000000000000000E-01   5.5000000000000004E-01
 6.0000000000000009E-01   6.5000000000000002E-01   7.0000000000000007E-01   7.5000000000000000E-01   8.0000000000000004E-01   8.5000000000000009E-01
 9.0000000000000002E-01   9.5000000000000007E-01   1.0000000000000000E+00   0.0000000000000000E+00   5.0000000000000003E-02   1.0000000000000001E-01
 1.5000000000000002E-01   2.0000000000000001E-01   2.5000000000000000E-01   3.0000000000000004E-01   3.5000000000000003E-01   4.0000000000000002E-01
 4.5000000000000001E-01   5.0000000000000000E-01   5.5000000000000004E-01   6.0000000000000009E-01   6.5000000000000002E-01   7.0000000000000007E-01
 7.5000000000000000E-01   8.0000000000000004E-01   8.5000000000000009E-01   9.0000000000000002E-01   9.5000000000000007E-01   1.0000000000000000E+00
 0.0000000000000000E+00   5.0000000000000003E-02   1.0000000000000001E-01   1.5000000000000002E-01   2.0000000000000001E-01   2.5000000000000000E-01
 3.0000000000000004E-01   3.5000000000000003E-01   4.0000000000000002E-01   4.5000000000000001E-01   5.0000000000000000E-01   5.5000000000000004E-01
 6.0000000000000009E-01   6.5000000000000002E-01   7.0000000000000007E-01   7.5000000000000000E-01   8.0000000000000004E-01   8.5000000000000009E-01
 9.0000000000000002E-01   9.5000000000000007E-01   1.0000000000000000E+00   0.0000000000000000E+00   5.0000000000000003E-02   1.0000000000000001E-01
 1.5000000000000002E-01   2.0000000000000001E-01   2.5000000000000000E-01   3.0000000000000004E-01   3.5000000000000003E-01   4.0000000000000002E-01
 4.5000000000000001E-01   5.0000000000000000E-01   5.5000000000000004E-01   6.0000000000000009E-01   6.5000000000000002E-01   7.0000000000000007E-01
 7.5000000000000000E-01   8.0000000000000004E-01   8.5000000000000009E-01   9.0000000000000002E-01   9.5000000000000007E-01   1.0000000000000000E+00
 0.0000000000000000E+00   5.0000000000000003E-02   1.0000000000000001E-01   1.5000000000000002E-01   2.0000000000000001E-01   2.5000000000000000E-01
 3.0000000000000004E-01   3.5000000000000003E-01   4.0000000000000002E-01   4.5000000000000001E-01   5.0000000000000000E-01   5.5000000000000004E-01
 6.0000000000000009E-01   6.5000000000000002E-01   7.0000000000000007E-01   7.5000000000000000E-01   8.0000000000000004E-01   8.5000000000000009E-01
 9.0000000000000002E-01   9.5000000000000007E-01   1.0000000000000000E+00   0.0000000000000000E+00   5.0000000000000003E-02   1.0000000000000001E-01
 1.5000000000000002E-01   2.0000000000000001E-01   2.5000000000000000E-01   3.0000000000000004E-01   3.5000000000000003E-01   4.0000000000000002E-01
 4.5000000000000001E-01   5.0000000000000000E-01   5.5000000000000004E-01   6.0000000000000009E-01   6.5000000000000002E-01   7.0000000000000007E-01
 7.5000000000000000E-01   8.0000000000000004E-01   8.5000000000000009E-01   9.0000000000000002E-01   9.5000000000000007E-01   1.0000000000000000E+00
 0.0000000000000000E+00   5.0000000000000003E-02   1.0000000000000001E-01   1.5000000000000002E-01   2.0000000000000001E-01   2.5000000000000000E-01
 3.0000000000000004E-01   3.5000000000000003E-01   4.0000000000000002E-01   4.5000000000000001E-01   5.0000000000000000E-01   5.5000000000000004E-01
 6.0000000000000009E-01   6.5000000000000002E-01   7.0000000000000007E-01   7.5000000000000000E-01   8.0000000000000004E-01   8.5000000000000009E-01
 9.0000000000000002E-01   9.5000000000000007E-01   1.0000000000000000E+00   0.0000000000000000E+00   5.0000000000000003E-02   1.0000000000000001E-01
 1.5000000000000002E-01   2.0000000000000001E-01   2.5000000000000000E-01   3.0000000000000004E-01   3.5000000000000003E-01   4.0000000000000002E-01
 4.5000000000000001E-01   5.0000000000000000E-01   5.5000000000000004E-01   6.0000000000000009E-01   6.5000000000000002E-01   7.0000000000000007E-01
 7.5000000000000000E-01   8.0000000000000004E-01   8.5000000000000009E-01   9.0000000000000002E-01   9.5000000000000007E-01   1.0000000000000000E+00
 0.0000000000000000E+00   5.0000000000000003E-02   1.0000000000000001E-01   1.5000000000000002E-01   2.0000000000000001E-01   2.5000000000000000E-01
 3.0000000000000004E-01   3.5000000000000003E-01   4.0000000000000002E-01   4.5000000000000001E-01   5.0000000000000000E-01   5.5000000000000004E-01
 6.0000000000000009E-01   6.5000000000000002E-01   7.0000000000000007E-01   7.5000000000000000E-01   8.0000000000000004E-01   8.5000000000000009E-01
 9.0000000000000002E-01   9.5000000000000007E-01   1.0000000000000000E+00
 0.0000000000000000E+00   0.0000000000000000E+00   0.0000000000000000E+00   0.0000000000000000E+00   0.0000000000000000E+00   0.0000000000000000E+00
 0.0000000000000000E+00   0.0000000000000000E+00   0.0000000000000000E+00   0.0000000000000000E+00   0.0000000000000000E+00   0.0000000000000000E+00
 0.0000000000000000E+00   0.0000000000000000E+00   0.0000000000000000E+00   0.0000000000000000E+00   0.0000000000000000E+00   0.0000000000000000E+00
 0.0000000000000000E+00   0.0000000000000000E+00   0.0000000000000000E+00   5.0000000000000003E-02   5.0000000000000003E-02   5.0000000000000003E-02
 5.0000000000000003E-02   5.0000000000000003E-02   5.0000000000000003E-02   5.0000000000000003E-02   5.0000000000000003E-02   5.0000000000000003E-02
 5.0000000000000003E-02   5.0000000000000003E-02   5.0000000000000003E-02   5.0000000000000003E-02   5.0000000000000003E-02   5.0000000000000003E-02
 5.0000000000000003E-02   5.0000000000000003E-02   5.0000000000000003E-02   5.0000000000000003E-02   5.0000000000000003E-02   5.0000000000000003E-02
 1.0000000000000001E-01   1.0000000000000001E-01   1.0000000000000001E-01   1.0000000000000001E-01   1.0000000000000001E-01   1.0000000000000001E-01
 1.0000000000000001E-01   1.0000000000000001E-01   1.0000000000000001E-01   1.0000000000000001E-01   1.0000000000000001E-01   1.0000000000000001E-01
 1.0000000000000001E-01   1.0000000000000001E-01   1.0000000000000001E-01   1.0000000000000001E-01   1.0000000000000001E-01   1.0000000000000001E-01
 1.0000000000000001E-01   1.0000000000000001E-01   1.0000000000000001E-01   1.5000000000000002E-01   1.5000000000000002E-01   1.5000000000000002E-01
 1.5000000000000002E-01   1.5000000000000002E-01   1.5000000000000002E-01   1.5000000000000002E-01   1.5000000000000002E-01   1.5000000000000002E-01
 1.5000000000000002E-01   1.5000000000000002E-01   1.5000000000000002E-01   1.5000000000000002E-01   1.5000000000000002E-01   1.5000000000000002E-01
 1.5000000000000002E-01   1.5000000000000002E-01   1.5000000000000002E-01   1.5000000000000002E-01   1.5000000000000002E-01   1.5000000000000002E-01
 2.0000000000000001E-01   2.0000000000000001E-01   2.0000000000000001E-01   2.0000000000000001E-01   2.0000000000000001E-01   2.0000000000000001E-01
 2.0000000000000001E-01   2.0000000000000001E-01   2.0000000000000001E-01   2.0000000000000001E-01   2.0000000000000001E-01   2.0000000000000001E-01
 2.0000000000000001E-01   2.0000000000000001E-01   2.0000000000000001E-01   2.0000000000000001E-01   2.0000000000000001E-01   2.0000000000000001E-01
 2.0000000000000001E-01   2.0000000000000001E-01   2.0000000000000001E-01   2.5000000000000000E-01   2.5000000000000000E-01   2.5000000000000000E-01
 2.5000000000000000E-01   2.5000000000000000E-01   2.5000000000000000E-01   2.5000000000000000E-01   2.5000000000000000E-01   2.5000000000000000E-01
 2.5000000000000000E-01   2.5000000000000000E-01   2.5000000000000000E-01   2.5000000000000000E-01   2.5000000000000000E-01   2.5000000000000000E-01
 2.5000000000000000E-01   2.5000000000000000E-01   2.5000000000000000E-01   2.5000000000000000E-01   2.5000000000000000E-01   2.5000000000000000E-01
 3.0000000000000004E-01   3.0000000000000004E-01   3.0000000000000004E-01   3.0000000000000004E-01   3.0000000000000004E-01   3.0000000000000004E-01
 3.0000000000000004E-01   3.0000000000000004E-01   3.0000000000000004E-01   3.0000000000000004E-01   3.0000000000000004E-01   3.0000000000000004E-01
 3.0000000000000004E-01   3.0000000000000004E-01   3.0000000000000004E-01   3.0000000000000004E-01   3.0000000000000004E-01   3.0000000000000004E-01
 3.0000000000000004E-01   3.0000000000000004E-01   3.0000000000000004E-01   3.5000000000000003E-01   3.5000000000000003E-01   3.5000000000000003E-01
 3.5000000000000003E-01   3.5000000000000003E-01   3.5000000000000003E-01   3.5000000000000003E-01   3.5000000000000003E-01   3.5000000000000003E-01
 3.5000000000000003E-01   3.5000000000000003E-01   3.5000000000000003E-01   3.5000000000000003E-01   3.5000000000000003E-01   3.5000000000000003E-01
 3.5000000000000003E-01   3.5000000000000003E-01   3.5000000000000003E-01   3.5000000000000003E-01   3.5000000000000003E-01   3.5000000000000003E-01
 4.0000000000000002E-01   4.0000000000000002E-01   4.0000000000000002E-01   4.0000000000000002E-01   4.0000000000000002E-01   4.0000000000000002E-01
 4.0000000000000002E-01   4.0000000000000002E-01   4.0000000000000002E-01   4.0000000000000002E-01   4.0000000000000002E-01   4.0000000000000002E-01
 4.0000000000000002E-01   4.0000000000000002E-01   4.0000000000000002E-01   4.0000000000000002E-01   4.0000000000000002E-01   4.0000000000000002E-01
 4.0000000000000002E-01   4.0000000000000002E-01   4.0000000000000002E-01   4.5000000000000001E-01   4.5000000000000001E-01   4.5000000000000001E-01
 4.5000000000000001E-01   4.5000000000000001E-01   4.5000000000000001E-01   4.5000000000000001E-01   4.5000000000000001E-01   4.5000000000000001E-01
 4.5000000000000001E-01   4.5000000000000001E-01   4.5000000000000001E-01   4.5000000000000001E-01   4.5000000000000001E-01   4.5000000000000001E-01
 4.5000000000000001E-01   4.5000000000000001E-01   4.5000000000000001E-01   4.5000000000000001E-01   4.5000000000000001E-01   4.5000000000000001E-01
 5.0000000000000000E-01   5.0000000000000000E-01   5.0000000000000000E-01   5.0000000000000000E-01   5.0000000000000000E-01   5.0000000000000000E-01
 5.0000000000000000E-01   5.0000000000000000E-01   5.0000000000000000E-01   5.0000000000000000E-01   5.0000000000000000E-01   5.0000000000000000E-01
 5.0000000000000000E-01   5.0000000000000000E-01   5.0000000000000000E-01   5.0000000000000000E-01   5.0000000000000000E-01   5.0000000000000000E-01
 5.0000000000000000E-01   5.0000000000000000E-01   5.0000000000000000E-01   5.5000000000000004E-01   5.5000000000000004E-01   5.5000000000000004E-01
 5.5000000000000004E-01   5.5000000000000004E-01   5.5000000000000004E-01   5.5000000000000004E-01   5.5000000000000004E-01   5.5000000000000004E-01
 5.5000000000000004E-01   5.5000000000000004E-01   5.5000000000000004E-01   5.5000000000000004E-01   5.5000000000000004E-01   5.5000000000000004E-01
 5.5000000000000004E-01   5.5000000000000004E-01   5.5000000000000004E-01   5.5000000000000004E-01   5.5000000000000004E-01   5.5000000000000004E-01
 6.0000000000000009E-01   6.0000000000000009E-01   6.0000000000000009E-01   6.0000000000000009E-01   6.0000000000000009E-01   6.0000000000000009E-01
 6.0000000000000009E-01   6.0000000000000009E-01   6.0000000000000009E-01   6.0000000000000009E-01   6.0000000000000009E-01   6.0000000000000009E-01
 6.0000000000000009E-01   6.0000000000000009E-01   6.0000000000000009E-01   6.0000000000000009E-01   6.0000000000000009E-01   6.0000000000000009E-01
 6.0000000000000009E-01   6.0000000000000009E-01   6.0000000000000009E-01   6.5000000000000002E-01   6.5000000000000002E-01   6.5000000000000002E-01
 6.5000000000000002E-01   6.5000000000000002E-01   6.5000000000000002E-01   6.5000000000000002E-01   6.5000000000000002E-01   6.5000000000000002E-01
 6.5000000000000002E-01   6.5000000000000002E-01   6.5000000000000002E-01   6.5000000000000002E-01   6.5000000000000002E-01   6.5000000000000002E-01
 6.5000000000000002E-01   6.5000000000000002E-01   6.5000000000000002E-01   6.5000000000000002E-01   6.5000000000000002E-01   6.5000000000000002E-01
 7.0000000000000007E-01   7.0000000000000007E-01   7.0000000000000007E-01   7.0000000000000007E-01   7.0000000000000007E-01   7.0000000000000007E-01
 7.0000000000000007E-01   7.0000000000000007E-01   7.0000000000000007E-01   7.0000000000000007E-01   7.0000000000000007E-01   7.0000000000000007E-01
 7.0000000000000007E-01   7.0000000000000007E-01   7.0000000000000007E-01   7.0000000000000007E-01   7.0000000000000007E-01   7.0000000000000007E-01
 7.0000000000000007E-01   7.0000000000000007E-01   7.0000000000000007E-01   7.5000000000000000E-01   7.5000000000000000E-01   7.5000000000000000E-01
 7.5000000000000000E-01   7.5000000000000000E-01   7.5000000000000000E-01   7.5000000000000000E-01   7.5000000000000000E-01   7.5000000000000000E-01
 7.5000000000000000E-01   7.5000000000000000E-01   7.5000000000000000E-01   7.5000000000000000E-01   7.5000000000000000E-01   7.5000000000000000E-01
 7.5000000000000000E-01   7.5000000000000000E-01   7.5000000000000000E-01   7.5000000000000000E-01   7.5000000000000000E-01   7.5000000000000000E-01
 8.0000000000000004E-01   8.0000000000000004E-01   8.0000000000000004E-01   8.0000000000000004E-01   8.0000000000000004E-01   8.0000000000000004E-01
 8.0000000000000004E-01   8.0000000000000004E-01   8.0000000000000004E-01   8.0000000000000004E-01   8.0000000000000004E-01   8.0000000000000004E-01
 8.0000000000000004E-01   8.0000000000000004E-01   8.0000000000000004E-01   8.0000000000000004E-01   8.0000000000000004E-01   8.0000000000000004E-01
 8.0000000000000004E-01   8.0000000000000004E-01   8.0000000000000004E-01   8.5000000000000009E-01   8.5000000000000009E-01   8.5000000000000009E-01
 8.5000000000000009E-01   8.5000000000000009E-01   8.5000000000000009E-01   8.5000000000000009E-01   8.5000000000000009E-01   8.5000000000000009E-01
 8.5000000000000009E-01   8.5000000000000009E-01   8.5000000000000009E-01   8.5000000000000009E-01   8.5000000000000009E-01   8.5000000000000009E-01
 8.5000000000000009E-01   8.5000000000000009E-01   8.5000000000000009E-01   8.5000000000000009E-01   8.5000000000000009E-01   8.5000000000000009E-01
 9.0000000000000002E-01   9.0000000000000002E-01   9.0000000000000002E-01   9.0000000000000002E-01   9.0000000000000002E-01   9.0000000000000002E-01
 9.0000000000000002E-01   9.0000000000000002E-01   9.0000000000000002E-01   9.0000000000000002E-01   9.0000000000000002E-01   9.0000000000000002E-01
 9.0000000000000002E-01   9.0000000000000002E-01   9.0000000000000002E-01   9.0000000000000002E-01   9.0000000000000002E-01   9.0000000000000002E-01
 9.0000000000000002E-01   9.0000000000000002E-01   9.0000000000000002E-01   9.5000000000000007E-01   9.5000000000000007E-01   9.5000000000000007E-01
 9.5000000000000007E-01   9.5000000000000007E-01   9.5000000000000007E-01   9.5000000000000007E-01   9.5000000000000007E-01   9.5000000000000007E-01
 9.5000000000000007E-01   9.5000000000000007E-01   9.5000000000000007E-01   9.5000000000000007E-01   9.5000000000000007E-01   9.5000000000000007E-01
 9.5000000000000007E-01   9.5000000000000007E-01   9.5000000000000007E-01   9.5000000000000007E-01   9.5000000000000007E-01   9.5000000000000007E-01
 1.0000000000000000E+00   1.0000000000000000E+00   1.0000000000000000E+00   1.0000000000000000E+00   1.0000000000000000E+00   1.0000000000000000E+00
 1.0000000000000000E+00   1.0000000000000000E+00   1.0000000000000000E+00   1.0000000000000000E+00   1.0000000000000000E+00   1.0000000000000000E+00
 1.0000000000000000E+00   1.0000000000000000E+00   1.0000000000000000E+00   1.0000000000000000E+00   1.0000000000000000E+00   1.0000000000000000E+00
 1.0000000000000000E+00   1.0000000000000000E+00   1.0000000000000000E+00
 1.0117320183599565E+00   1.0342122302544079E+00   1.0534897356320638E+00   1.0676648981382522E+00   1.0755300773138639E+00   1.0755300754546142E+00
 1.0676648941669373E+00   1.0534897290878757E+00   1.0342122208008833E+00   1.0117320064531052E+00   9.8807600151008979E-01   9.6545268788617233E-01
 9.4589669934772713E-01   9.3147777141719901E-01   9.2341297647487208E-01   9.2341298109291159E-01   9.3147778022716710E-01   9.4589671197220870E-01
 9.6545270224066881E-01   9.8807601590047223E-01   1.0263264492403628E+00   1.0769232392859227E+00   1.1203968550195929E+00   1.1525370920758060E+00
 1.1704011671647183E+00   1.1704011629748166E+00   1.1525370831740873E+00   1.1203968402042552E+00   1.0769232181205057E+00   1.0263264226047459E+00
 9.7328163716689520E-01   9.2274946670536695E-01   8.7930580340417575E-01   8.4725886056571953E-01   8.2930502271602380E-01   8.2930503321502480E-01
 8.4725887993102700E-01   8.7930583133525120E-01   9.2274949876910994E-01   9.7328166930052396E-01   1.0383822947836883E+00   1.1125151934346826E+00
 1.1760519772799922E+00   1.2232285847021438E+00   1.2494554881256217E+00   1.2494554819461394E+00   1.2232285717077485E+00   1.1760519555575879E+00
 1.1125151625018002E+00   1.0383822559487443E+00   9.6088455285032903E-01   8.8714023161118272E-01   8.2404661316762007E-01   7.7745107670573188E-01
 7.5147307026730381E-01   7.5147308555200476E-01   7.7745110465988732E-01   8.2404665357565343E-01   8.8714027830019404E-01   9.6088459979386420E-01
 1.0469338794969367E+00   1.1374293491844958E+00   1.2150026598130717E+00   1.2725247034135874E+00   1.3044947245456631E+00   1.3044947169887382E+00
 1.2725246876786227E+00   1.2150026332181763E+00   1.1374293114440279E+00   1.0469338319544286E+00   9.5209234599756998E-01   8.6211411259458770E-01
 7.8532977091356337E-01   7.2883685415240085E-01   6.9743574704011169E-01   6.9743576567764898E-01   7.2883688777077482E-01   7.8532982014546560E-01
 8.6211416946465957E-01   9.5209240338538059E-01   1.0510637757998043E+00   1.1499387142423205E+00   1.2347174155359466E+00   1.2976286997148871E+00
 1.3325578479984101E+00   1.3325578397410116E+00   1.2976286825372561E+00   1.2347173864429530E+00   1.1499386729495342E+00   1.0510637237709342E+00
 9.4771255744462024E-01   8.4958974221887618E-01   7.6588824830319069E-01   7.0425653238576247E-01   6.7013422368926745E-01   6.7013424399112653E-01
 7.0425656883069765E-01   7.6588830207792902E-01   8.4958980432843345E-01   9.4771262010640289E-01   1.0493902754786446E+00   1.1449087974017735E+00
 1.2267757132917292E+00   1.2875216910157530E+00   1.3212628828520774E+00   1.3212628748744395E+00   1.2875216744292435E+00   1.2267756851960905E+00
 1.1449087575474102E+00   1.0493902252556768E+00   9.4944646732551274E-01   8.5458204186397702E-01   7.7367856394850620E-01   7.1413499095954847E-01
 6.8111193456165942E-01   6.8111195421046444E-01   7.1413502626031955E-01   7.7367861589962383E-01   8.5458210184273264E-01   9.4944652786317407E-01
 1.0431719368093366E+00   1.1265245653376388E+00   1.1980310025026177E+00   1.2510825723946932E+00   1.2806057064540028E+00   1.2806056994846642E+00
 1.2510825578287039E+00   1.1980309780283835E+00   1.1265245305531633E+00   1.0431718930794744E+00   9.5599811183280525E-01   8.7313355834532469E-01
 8.0226998626931978E-01   7.5007262316780965E-01   7.2096367575977982E-01   7.2096369297984098E-01   7.5007265438352455E-01   8.0227003164207200E-01
 8.7313361082191054E-01   9.5599816457669584E-01   1.0327929923421191E+00   1.0959032243136801E+00   1.1499714213439391E+00   1.1900551074261525E+00
 1.2122875939432829E+00   1.2122875887052615E+00   1.1900550963650445E+00   1.1499714028773309E+00   1.0959031979824347E+00   1.0327929592086322E+00
 9.6668275219994371E-01   9.0378582238262906E-01   8.4986791894986136E-01   8.1003525051849401E-01   7.8788935623865775E-01   7.8788936914069185E-01
 8.1003527447021051E-01   8.4986795356031686E-01   9.0378586221784829E-01   9.6668279224589670E-01   1.0192389386423346E+00   1.0561888391429100E+00
 1.0879974500739529E+00   1.1114298764065369E+00   1.1244496876960672E+00   1.1244496846759586E+00   1.1114298698615088E+00   1.0879974392639813E+00
 1.0561888236291710E+00   1.0192389191609448E+00   9.8045209101885300E-01   9.4346499836049624E-01   9.1155973029179160E-01   8.8803528625778771E-01
 8.7487380264216508E-01   8.7487381009537435E-01   8.8803530062109826E-01   9.1155975084286955E-01   9.4346502182184233E-01   9.8045211455258474E-01
 1.0038850240353527E+00   1.0113666837382054E+00   1.0177624825584985E+00   1.0224273881110488E+00   1.0248989053574480E+00   1.0248989047903905E+00
 1.0224273868088898E+00   1.0177624803868297E+00   1.0113666805838131E+00   1.0038850200004912E+00   9.9594465941040122E-01   9.8827357942700778E-01
 9.8162029911138260E-01   9.7663287352208561E-01   9.7380850289484522E-01   9.7380850446552403E-01   9.7663287658346076E-01   9.8162030347853224E-01
 9.8827358434437385E-01   9.9594466428920769E-01   9.8807606050037977E-01   9.6545224285130893E-01   9.4589502011378856E-01   9.3147488506680887E-01
 9.2340910735797677E-01   9.2340910921145869E-01   9.3147488913932364E-01   9.4589502678582782E-01   9.6545225226743703E-01   9.8807607226931948E-01
 1.0117321606576968E+00   1.0342126817848827E+00   1.0534915810624468E+00   1.0676675911249622E+00   1.0755336516078735E+00   1.0755336469272547E+00
 1.0676675825193500E+00   1.0534915688375051E+00   1.0342126675391847E+00   1.0117321464209990E+00   9.7328161583703343E-01   9.2274923269438414E-01
 8.7930433861343049E-01   8.4725647501436863E-01   8.2930189220389883E-01   8.2930189641333962E-01   8.4725648402207643E-01   8.7930435348156011E-01
 9.2274925375724037E-01   9.7328164221844327E-01   1.0263264508141006E+00   1.0769234893562223E+00   1.1203983537067845E+00   1.1525395054533001E+00
 1.1704042114991413E+00   1.1704042009364206E+00   1.1525394861485865E+00   1.1203983257671575E+00   1.0769234573470996E+00   1.0263264187915275E+00
 9.6088448093017476E-01   8.8713997953109580E-01   8.2404512870801272E-01   7.7744872939235121E-01   7.5147006207800360E-01   7.5147006822121176E-01
 7.7744874246380380E-01   8.2404515026159209E-01   8.8714001018815636E-01   9.6088451945315700E-01   1.0383822270975518E+00   1.1125154557879948E+00
 1.1760534179608744E+00   1.2232311223180556E+00   1.2494586893935471E+00   1.2494586737530777E+00   1.2232310941289071E+00   1.1760533768330994E+00
 1.1125154089297919E+00   1.0383821804024205E+00   9.5209224149822180E-01   8.6211378301805763E-01   7.8532840122833392E-01   7.2883470926582350E-01
 6.9743307799694743E-01   6.9743308549602612E-01   7.2883472506725555E-01   7.8532842748415665E-01   8.6211382033958150E-01   9.5209228856657835E-01
 1.0469338335438743E+00   1.1374296171301148E+00   1.2150039298537219E+00   1.2725270683044601E+00   1.3044976689296217E+00   1.3044976497588474E+00
 1.2725270342008148E+00   1.2150038793182913E+00   1.1374295599774451E+00   1.0469337764280782E+00   9.4771242975521974E-01   8.4958939773266673E-01
 7.6588700216893879E-01   7.0425456675473486E-01   6.7013179832700132E-01   6.7013180649381499E-01   7.0425458392638063E-01   7.6588703091183119E-01
 8.4958943859677816E-01   9.4771248115674367E-01   1.0510637559718585E+00   1.1499390237161207E+00   1.2347186024134966E+00   1.2976308708297863E+00
 1.3325605434070844E+00   1.3325605224324677E+00   1.2976308336258686E+00   1.2347185470861421E+00   1.1499389612477033E+00   1.0510636935310291E+00
 9.4944637926051623E-01   8.5458178093049642E-01   7.7367758091697203E-01   7.1413345318888899E-01   6.8110999833810515E-01   6.8111000624198192E-01
 7.1413346981814962E-01   7.7367760865929958E-01   8.5458182035387176E-01   9.4944642890591546E-01   1.0493902633650189E+00   1.1449090327354372E+00
 1.2267766323416940E+00   1.2875233597472022E+00   1.3212649772415912E+00   1.3212649569848545E+00   1.2875233237995820E+00   1.2267765789376484E+00