 VARIABLES = X, Y, RHO, U, V, P, T, QX, QY, index1, index2
 ZONE  I =           41 , J =           41 DATAPACKING=BLOCK, VARLOCATION=([3-11]=CELLCENTERED)
 0.0000000000000000E+00   2.5000000000000001E-02   5.0000000000000003E-02   7.5000000000000011E-02   1.0000000000000001E-01   1.2500000000000000E-01
 1.5000000000000002E-01   1.7500000000000002E-01   2.0000000000000001E-01   2.2500000000000001E-01   2.5000000000000000E-01   2.7500000000000002E-01
 3.0000000000000004E-01   3.2500000000000001E-01   3.5000000000000003E-01   3.7500000000000000E-01   4.0000000000000002E-01   4.2500000000000004E-01
 4.5000000000000001E-01   4.7500000000000003E-01   5.0000000000000000E-01   5.2500000000000002E-01   5.5000000000000004E-01   5.7500000000000007E-01
 6.0000000000000009E-01   6.2500000000000000E-01   6.5000000000000002E-01   6.7500000000000004E-01   7.0000000000000007E-01   7.2500000000000009E-01
 7.5000000000000000E-01   7.7500000000000002E-01   8.0000000000000004E-01   8.2500000000000007E-01   8.5000000000000009E-01   8.7500000000000000E-01
 9.0000000000000002E-01   9.2500000000000004E-01   9.5000000000000007E-01   9.7500000000000009E-01   1.0000000000000000E+00   0.0000000000000000E+00
 2.5000000000000001E-02   5.0000000000000003E-02   7.5000000000000011E-02   1.0000000000000001E-01   1.2500000000000000E-01   1.5000000000000002E-01
 1.7500000000000002E-01   2.0000000000000001E-01   2.2500000000000001E-01   2.5000000000000000E-01   2.7500000000000002E-01   3.0000000000000004E-01
 3.2500000000000001E-01   3.5000000000000003E-01   3.7500000000000000E-01   4.0000000000000002E-01   4.2500000000000004E-01   4.5000000000000001E-01
 4.7500000000000003E-01   5.0000000000000000E-01   5.2500000000000002E-01   5.5000000000000004E-01   5.7500000000000007E-01   6.0000000000000009E-01
 6.2500000000000000E-01   6.5000000000000002E-01   6.7500000000000004E-01   7.0000000000000007E-01   7.2500000000000009E-01   7.5000000000000000E-01
 7.7500000000000002E-01   8.0000000000000004E-01   8.2500000000000007E-01   8.5000000000000009E-01   8.7500000000000000E-01   9.0000000000000002E-01
 9.2500000000000004E-01   9.5000000000000007E-01   9.7500000000000009E-01   1.0000000000000000E+00   0.0000000000000000E+00   2.5000000000000001E-02
 5.0000000000000003E-02   7.5000000000000011E-02   1.0000000000000001E-01   1.2500000000000000E-01   1.5000000000000002E-01   1.7500000000000002E-01
 2.0000000000000001E-01   2.2500000000000001E-01   2.5000000000000000E-01   2.7500000000000002E-01   3.0000000000000004E-01   3.2500000000000001E-01
 3.5000000000000003E-01   3.7500000000000000E-01   4.0000000000000002E-01   4.2500000000000004E-01   4.5000000000000001E-01   4.7500000000000003E-01
 5.0000000000000000E-01   5.2500000000000002E-01   5.5000000000000004E-01   5.7500000000000007E-01   6.0000000000000009E-01   6.2500000000000000E-01
 6.5000000000000002E-01   6.7500000000000004E-01   7.0000000000000007E-01   7.2500000000000009E-01   7.5000000000000000E-01   7.7500000000000002E-01
 8.0000000000000004E-01   8.2500000000000007E-01   8.5000000000000009E-01   8.7500000000000000E-01   9.0000000000000002E-01   9.2500000000000004E-01
 9.5000000000000007E-01   9.7500000000000009E-01   1.0000000000000000E+00   0.0000000000000000E+00   2.5000000000000001E-02   5.0000000000000003E-02
 7.5000000000000011E-02   1.0000000000000001E-01   1.2500000000000000E-01   1.5000000000000002E-01   1.7500000000000002E-01   2.0000000000000001E-01
 2.2500000000000001E-01   2.5000000000000000E-01   2.7500000000000002E-01   3.0000000000000004E-01   3.2500000000000001E-01   3.5000000000000003E-01
 3.7500000000000000E-01   4.0000000000000002E-01   4.2500000000000004E-01   4.5000000000000001E-01   4.7500000000000003E-01   5.0000000000000000E-01
 5.2500000000000002E-01   5.5000000000000004E-01   5.7500000000000007E-01   6.0000000000000009E-01   6.2500000000000000E-01   6.5000000000000002E-01
 6.7500000000000004E-01   7.0000000000000007E-01   7.2500000000000009E-01   7.5000000000000000E-01   7.7500000000000002E-01   8.0000000000000004E-01
 8.2500000000000007E-01   8.5000000000000009E-01   8.7500000000000000E-01   9.0000000000000002E-01   9.2500000000000004E-01   9.5000000000000007E-01
 9.7500000000000009E-01   1.0000000000000000E+00   0.0000000000000000E+00   2.5000000000000001E-02   5.0000000000000003E-02   7.5000000000000011E-02
 1.0000000000000001E-01   1.2500000000000000E-01   1.5000000000000002E-01   1.7500000000000002E-01   2.0000000000000001E-01   2.2500000000000001E-01
 2.5000000000000000E-01   2.7500000000000002E-01   3.0000000000000004E-01   3.2500000000000001E-01   3.5000000000000003E-01   3.7500000000000000E-01
 4.0000000000000002E-01   4.2500000000000004E-01   4.5000000000000001E-01   4.7500000000000003E-01   5.0000000000000000E-01   5.2500000000000002E-01
 5.5000000000000004E-01   5.7500000000000007E-01   6.0000000000000009E-01   6.2500000000000000E-01   6.5000000000000002E-01   6.7500000000000004E-01
 7.0000000000000007E-01   7.2500000000000009E-01   7.5000000000000000E-01   7.7500000000000002E-01   8.0000000000000004E-01   8.2500000000000007E-01
 8.5000000000000009E-01   8.7500000000000000E-01   9.0000000000000002E-01   9.2500000000000004E-01   9.5000000000000007E-01   9.7500000000000009E-01
 1.0000000000000000E+00   0.0000000000000000E+00   2.5000000000000001E-02   5.0000000000000003E-02   7.5000000000000011E-02   1.0000000000000001E-01
 1.2500000000000000E-01   1.5000000000000002E-01   1.7500000000000002E-01   2.0000000000000001E-01   2.2500000000000001E-01   2.5000000000000000E-01
 2.7500000000000002E-01   3.0000000000000004E-01   3.2500000000000001E-01   3.5000000000000003E-01   3.7500000000000000E-01   4.0000000000000002E-01
 4.2500000000000004E-01   4.5000000000000001E-01   4.7500000000000003E-01   5.0000000000000000E-01   5.2500000000000002E-01   5.5000000000000004E-01
 5.7500000000000007E-01   6.0000000000000009E-01   6.2500000000000000E-01   6.5000000000000002E-01   6.7500000000000004E-01   7.0000000000000007E-01
 7.2500000000000009E-01   7.5000000000000000E-01   7.7500000000000002E-01   8.0000000000000004E-01   8.2500000000000007E-01   8.5000000000000009E-01
 8.7500000000000000E-01   9.0000000000000002E-01   9.2500000000000004E-01   9.5000000000000007E-01   9.7500000000000009E-01   1.0000000000000000E+00
 0.0000000000000000E+00   2.5000000000000001E-02   5.0000000000000003E-02   7.5000000000000011E-02   1.0000000000000001E-01   1.2500000000000000E-01
 1.5000000000000002E-01   1.7500000000000002E-01   2.0000000000000001E-01   2.2500000000000001E-01   2.5000000000000000E-01   2.7500000000000002E-01
 3.0000000000000004E-01   3.2500000000000001E-01   3.5000000000000003E-01   3.7500000000000000E-01   4.0000000000000002E-01   4.2500000000000004E-01
 4.5000000000000001E-01   4.7500000000000003E-01   5.0000000000000000E-01   5.2500000000000002E-01   5.5000000000000004E-01   5.7500000000000007E-01
 6.0000000000000009E-01   6.2500000000000000E-01   6.5000000000000002E-01   6.7500000000000004E-01   7.0000000000000007E-01   7.2500000000000009E-01
 7.5000000000000000E-01   7.7500000000000002E-01   8.0000000000000004E-01   8.2500000000000007E-01   8.5000000000000009E-01   8.7500000000000000E-01
 9.0000000000000002E-01   9.2500000000000004E-01   9.5000000000000007E-01   9.7500000000000009E-01   1.0000000000000000E+00   0.0000000000000000E+00
 2.5000000000000001E-02   5.0000000000000003E-02   7.5000000000000011E-02   1.0000000000000001E-01   1.2500000000000000E-01   1.5000000000000002E-01
 1.7500000000000002E-01   2.0000000000000001E-01   2.2500000000000001E-01   2.5000000000000000E-01   2.7500000000000002E-01   3.0000000000000004E-01
 3.2500000000000001E-01   3.5000000000000003E-01   3.7500000000000000E-01   4.0000000000000002E-01   4.2500000000000004E-01   4.5000000000000001E-01
 4.7500000000000003E-01   5.0000000000000000E-01   5.2500000000000002E-01   5.5000000000000004E-01   5.7500000000000007E-01   6.0000000000000009E-01
 6.2500000000000000E-01   6.5000000000000002E-01   6.7500000000000004E-01   7.0000000000000007E-01   7.2500000000000009E-01   7.5000000000000000E-01
 7.7500000000000002E-01   8.0000000000000004E-01   8.2500000000000007E-01   8.5000000000000009E-01   8.7500000000000000E-01   9.0000000000000002E-01
 9.2500000000000004E-01   9.5000000000000007E-01   9.7500000000000009E-01   1.0000000000000000E+00   0.0000000000000000E+00   2.5000000000000001E-02
 5.0000000000000003E-02   7.5000000000000011E-02   1.0000000000000001E-01   1.2500000000000000E-01   1.5000000000000002E-01   1.7500000000000002E-01
 2.0000000000000001E-01   2.2500000000000001E-01   2.5000000000000000E-01   2.7500000000000002E-01   3.0000000000000004E-01   3.2500000000000001E-01
 3.5000000000000003E-01   3.7500000000000000E-01   4.0000000000000002E-01   4.2500000000000004E-01   4.5000000000000001E-01   4.7500000000000003E-01
 5.0000000000000000E-01   5.2500000000000002E-01   5.5000000000000004E-01   5.7500000000000007E-01   6.0000000000000009E-01   6.2500000000000000E-01
 6.5000000000000002E-01   6.7500000000000004E-01   7.0000000000000007E-01   7.2500000000000009E-01   7.5000000000000000E-01   7.7500000000000002E-01
 8.0000000000000004E-01   8.2500000000000007E-01   8.5000000000000009E-01   8.7500000000000000E-01   9.0000000000000002E-01   9.2500000000000004E-01
 9.5000000000000007E-01   9.7500000000000009E-01   1.0000000000000000E+00   0.0000000000000000E+00   2.5000000000000001E-02   5.0000000000000003E-02
 7.5000000000000011E-02   1.0000000000000001E-01   1.2500000000000000E-01   1.5000000000000002E-01   1.7500000000000002E-01   2.0000000000000001E-01
 2.2500000000000001E-01   2.5000000000000000E-01   2.7500000000000002E-01   3.0000000000000004E-01   3.2500000000000001E-01   3.5000000000000003E-01
 3.7500000000000000E-01   4.0000000000000002E-01   4.2500000000000004E-01   4.5000000000000001E-01   4.7500000000000003E-01   5.0000000000000000E-01
 5.2500000000000002E-01   5.5000000000000004E-01   5.7500000000000007E-01   6.0000000000000009E-01   6.2500000000000000E-01   6.5000000000000002E-01
 6.7500000000000004E-01   7.0000000000000007E-01   7.2500000000000009E-01   7.5000000000000000E-01   7.7500000000000002E-01   8.0000000000000004E-01
 8.2500000000000007E-01   8.5000000000000009E-01   8.7500000000000000E-01   9.0000000000000002E-01   9.2500000000000004E-01   9.5000000000000007E-01
 9.7500000000000009E-01   1.0000000000000000E+00   0.0000000000000000E+00   2.5000000000000001E-02   5.0000000000000003E-02   7.5000000000000011E-02
 1.0000000000000001E-01   1.2500000000000000E-01   1.5000000000000002E-01   1.7500000000000002E-01   2.0000000000000001E-01   2.2500000000000001E-01
 2.5000000000000000E-01   2.7500000000000002E-01   3.0000000000000004E-01   3.2500000000000001E-01   3.5000000000000003E-01   3.7500000000000000E-01
 4.0000000000000002E-01   4.2500000000000004E-01   4.5000000000000001E-01   4.7500000000000003E-01   5.0000000000000000E-01   5.2500000000000002E-01
 5.5000000000000004E-01   5.7500000000000007E-01   6.0000000000000009E-01   6.2500000000000000E-01   6.5000000000000002E-01   6.7500000000000004E-01
 7.0000000000000007E-01   7.2500000000000009E-01   7.5000000000000000E-01   7.7500000000000002E-01   8.0000000000000004E-01   8.2500000000000007E-01
 8.5000000000000009E-01   8.7500000000000000E-01   9.0000000000000002E-01   9.2500000000000004E-01   9.5000000000000007E-01   9.7500000000000009E-01
 1.0000000000000000E+00   0.0000000000000000E+00   2.5000000000000001E-02   5.0000000000000003E-02   7.5000000000000011E-02   1.0000000000000001E-01
 1.2500000000000000E-01   1.5000000000000002E-01   1.7500000000000002E-01   2.0000000000000001E-01   2.2500000000000001E-01   2.5000000000000000E-01
 2.7500000000000002E-01   3.0000000000000004E-01   3.2500000000000001E-01   3.5000000000000003E-01   3.7500000000000000E-01   4.0000000000000002E-01
 4.2500000000000004E-01   4.5000000000000001E-01   4.7500000000000003E-01   5.0000000000000000E-01   5.2500000000000002E-01   5.5000000000000004E-01
 5.7500000000000007E-01   6.0000000000000009E-01   6.2500000000000000E-01   6.5000000000000002E-01   6.7500000000000004E-01   7.0000000000000007E-01
 7.2500000000000009E-01   7.5000000000000000E-01   7.7500000000000002E-01   8.0000000000000004E-01   8.2500000000000007E-01   8.5000000000000009E-01
 8.7500000000000000E-01   9.0000000000000002E-01   9.2500000000000004E-01   9.5000000000000007E-01   9.7500000000000009E-01   1.0000000000000000E+00
 0.0000000000000000E+00   2.5000000000000001E-02   5.0000000000000003E-02   7.5000000000000011E-02   1.0000000000000001E-01   1.2500000000000000E-01
 1.5000000000000002E-01   1.7500000000000002E-01   2.0000000000000001E-01   2.2500000000000001E-01   2.5000000000000000E-01   2.7500000000000002E-01
 3.0000000000000004E-01   3.2500000000000001E-01   3.5000000000000003E-01   3.7500000000000000E-01   4.0000000000000002E-01   4.2500000000000004E-01
 4.5000000000000001E-01   4.7500000000000003E-01   5.0000000000000000E-01   5.2500000000000002E-01   5.5000000000000004E-01   5.7500000000000007E-01
 6.0000000000000009E-01   6.2500000000000000E-01   6.5000000000000002E-01   6.7500000000000004E-01   7.0000000000000007E-01   7.2500000000000009E-01
 7.5000000000000000E-01   7.7500000000000002E-01   8.0000000000000004E-01   8.2500000000000007E-01   8.5000000000000009E-01   8.7500000000000000E-01
 9.0000000000000002E-01   9.2500000000000004E-01   9.5000000000000007E-01   9.7500000000000009E-01   1.0000000000000000E+00   0.0000000000000000E+00
 2.5000000000000001E-02   5.0000000000000003E-02   7.5000000000000011E-02   1.0000000000000001E-01   1.2500000000000000E-01   1.5000000000000002E-01
 1.7500000000000002E-01   2.0000000000000001E-01   2.2500000000000001E-01   2.5000000000000000E-01   2.7500000000000002E-01   3.0000000000000004E-01
 3.2500000000000001E-01   3.5000000000000003E-01   3.7500000000000000E-01   4.0000000000000002E-01   4.2500000000000004E-01   4.5000000000000001E-01
 4.7500000000000003E-01   5.0000000000000000E-01   5.2500000000000002E-01   5.5000000000000004E-01   5.7500000000000007E-01   6.0000000000000009E-01
 6.2500000000000000E-01   6.5000000000000002E-01   6.7500000000000004E-01   7.0000000000000007E-01   7.2500000000000009E-01   7.5000000000000000E-01
 7.7500000000000002E-01   8.0000000000000004E-01   8.2500000000000007E-01   8.5000000000000009E-01   8.7500000000000000E-01   9.0000000000000002E-01
 9.2500000000000004E-01   9.5000000000000007E-01   9.7500000000000009E-01   1.0000000000000000E+00   0.0000000000000000E+00   2.5000000000000001E-02
 5.0000000000000003E-02   7.5000000000000011E-02   1.0000000000000001E-01   1.2500000000000000E-01   1.5000000000000002E-01   1.7500000000000002E-01
 2.0000000000000001E-01   2.2500000000000001E-01   2.5000000000000000E-01   2.7500000000000002E-01   3.0000000000000004E-01   3.2500000000000001E-01
 3.5000000000000003E-01   3.7500000000000000E-01   4.0000000000000002E-01   4.2500000000000004E-01   4.5000000000000001E-01   4.7500000000000003E-01
 5.0000000000000000E-01   5.2500000000000002E-01   5.5000000000000004E-01   5.7500000000000007E-01   6.0000000000000009E-01   6.2500000000000000E-01
 6.5000000000000002E-01   6.7500000000000004E-01   7.0000000000000007E-01   7.2500000000000009E-01   7.5000000000000000E-01   7.7500000000000002E-01
 8.0000000000000004E-01   8.2500000000000007E-01   8.5000000000000009E-01   8.7500000000000000E-01   9.0000000000000002E-01   9.2500000000000004E-01
 9.5000000000000007E-01   9.7500000000000009E-01   1.0000000000000000E+00   0.0000000000000000E+00   2.5000000000000001E-02   5.0000000000000003E-02
 7.5000000000000011E-02   1.0000000000000001E-01   1.2500000000000000E-01   1.5000000000000002E-01   1.7500000000000002E-01   2.0000000000000001E-01
 2.2500000000000001E-01   2.5000000000000000E-01   2.7500000000000002E-01   3.0000000000000004E-01   3.2500000000000001E-01   3.5000000000000003E-01
 3.7500000000000000E-01   4.0000000000000002E-01   4.2500000000000004E-01   4.5000000000000001E-01   4.7500000000000003E-01   5.0000000000000000E-01
 5.2500000000000002E-01   5.5000000000000004E-01   5.7500000000000007E-01   6.0000000000000009E-01   6.2500000000000000E-01   6.5000000000000002E-01
 6.7500000000000004E-01   7.0000000000000007E-01   7.2500000000000009E-01   7.5000000000000000E-01   7.7500000000000002E-01   8.0000000000000004E-01
 8.2500000000000007E-01   8.5000000000000009E-01   8.7500000000000000E-01   9.0000000000000002E-01   9.2500000000000004E-01   9.5000000000000007E-01
 9.7500000000000009E-01   1.0000000000000000E+00   0.0000000000000000E+00   2.5000000000000001E-02   5.0000000000000003E-02   7.5000000000000011E-02
 1.0000000000000001E-01   1.2500000000000000E-01   1.5000000000000002E-01   1.7500000000000002E-01   2.0000000000000001E-01   2.2500000000000001E-01
 2.5000000000000000E-01   2.7500000000000002E-01   3.0000000000000004E-01   3.2500000000000001E-01   3.5000000000000003E-01   3.7500000000000000E-01
 4.0000000000000002E-01   4.2500000000000004E-01   4.5000000000000001E-01   4.7500000000000003E-01   5.0000000000000000E-01   5.2500000000000002E-01
 5.5000000000000004E-01   5.7500000000000007E-01   6.0000000000000009E-01   6.2500000000000000E-01   6.5000000000000002E-01   6.7500000000000004E-01
 7.0000000000000007E-01   7.2500000000000009E-01   7.5000000000000000E-01   7.7500000000000002E-01   8.0000000000000004E-01   8.2500000000000007E-01
 8.5000000000000009E-01   8.7500000000000000E-01   9.0000000000000002E-01   9.2500000000000004E-01   9.5000000000000007E-01   9.7500000000000009E-01
 1.0000000000000000E+00   0.0000000000000000E+00   2.5000000000000001E-02   5.0000000000000003E-02   7.5000000000000011E-02   1.0000000000000001E-01
 1.2500000000000000E-01   1.5000000000000002E-01   1.7500000000000002E-01   2.0000000000000001E-01   2.2500000000000001E-01   2.5000000000000000E-01
 2.7500000000000002E-01   3.0000000000000004E-01   3.2500000000000001E-01   3.5000000000000003E-01   3.7500000000000000E-01   4.0000000000000002E-01
 4.2500000000000004E-01   4.5000000000000001E-01   4.7500000000000003E-01   5.0000000000000000E-01   5.2500000000000002E-01   5.5000000000000004E-01
 5.7500000000000007E-01   6.0000000000000009E-01   6.2500000000000000E-01   6.5000000000000002E-01   6.7500000000000004E-01   7.0000000000000007E-01
 7.2500000000000009E-01   7.5000000000000000E-01   7.7500000000000002E-01   8.0000000000000004E-01   8.2500000000000007E-01   8.5000000000000009E-01
 8.7500000000000000E-01   9.0000000000000002E-01   9.2500000000000004E-01   9.5000000000000007E-01   9.7500000000000009E-01   1.0000000000000000E+00
 0.0000000000000000E+00   2.5000000000000001E-02   5.0000000000000003E-02   7.5000000000000011E-02   1.0000000000000001E-01   1.2500000000000000E-01
 1.5000000000000002E-01   1.7500000000000002E-01   2.0000000000000001E-01   2.2500000000000001E-01   2.5000000000000000E-01   2.7500000000000002E-01
 3.0000000000000004E-01   3.2500000000000001E-01   3.5000000000000003E-01   3.7500000000000000E-01   4.0000000000000002E-01   4.2500000000000004E-01
 4.5000000000000001E-01   4.7500000000000003E-01   5.0000000000000000E-01   5.2500000000000002E-01   5.5000000000000004E-01   5.7500000000000007E-01
 6.0000000000000009E-01   6.2500000000000000E-01   6.5000000000000002E-01   6.7500000000000004E-01   7.0000000000000007E-01   7.2500000000000009E-01
 7.5000000000000000E-01   7.7500000000000002E-01   8.0000000000000004E-01   8.2500000000000007E-01   8.5000000000000009E-01   8.7500000000000000E-01
 9.0000000000000002E-01   9.2500000000000004E-01   9.5000000000000007E-01   9.7500000000000009E-01   1.0000000000000000E+00   0.0000000000000000E+00
 2.5000000000000001E-02   5.0000000000000003E-02   7.5000000000000011E-02   1.0000000000000001E-01   1.2500000000000000E-01   1.5000000000000002E-01
 1.7500000000000002E-01   2.0000000000000001E-01   2.2500000000000001E-01   2.5000000000000000E-01   2.7500000000000002E-01   3.0000000000000004E-01
 3.2500000000000001E-01   3.5000000000000003E-01   3.7500000000000000E-01   4.0000000000000002E-01   4.2500000000000004E-01   4.5000000000000001E-01
 4.7500000000000003E-01   5.0000000000000000E-01   5.2500000000000002E-01   5.5000000000000004E-01   5.7500000000000007E-01   6.0000000000000009E-01
 6.2500000000000000E-01   6.5000000000000002E-01   6.7500000000000004E-01   7.0000000000000007E-01   7.2500000000000009E-01   7.5000000000000000E-01
 7.7500000000000002E-01   8.0000000000000004E-01   8.2500000000000007E-01   8.5000000000000009E-01   8.7500000000000000E-01   9.0000000000000002E-01
 9.2500000000000004E-01   9.5000000000000007E-01   9.7500000000000009E-01   1.0000000000000000E+00   0.0000000000000000E+00   2.5000000000000001E-02
 5.0000000000000003E-02   7.5000000000000011E-02   1.0000000000000001E-01   1.2500000000000000E-01   1.5000000000000002E-01   1.7500000000000002E-01
 2.0000000000000001E-01   2.2500000000000001E-01   2.5000000000000000E-01   2.7500000000000002E-01   3.0000000000000004E-01   3.2500000000000001E-01
 3.5000000000000003E-01   3.7500000000000000E-01   4.0000000000000002E-01   4.2500000000000004E-01   4.5000000000000001E-01   4.7500000000000003E-01
 5.0000000000000000E-01   5.2500000000000002E-01   5.5000000000000004E-01   5.7500000000000007E-01   6.0000000000000009E-01   6.2500000000000000E-01
 6.5000000000000002E-01   6.7500000000000004E-01   7.0000000000000007E-01   7.2500000000000009E-01   7.5000000000000000E-01   7.7500000000000002E-01
 8.0000000000000004E-01   8.2500000000000007E-01   8.5000000000000009E-01   8.7500000000000000E-01   9.0000000000000002E-01   9.2500000000000004E-01
 9.5000000000000007E-01   9.7500000000000009E-01   1.0000000000000000E+00   0.0000000000000000E+00   2.5000000000000001E-02   5.0000000000000003E-02
 7.5000000000000011E-02   1.0000000000000001E-01   1.2500000000000000E-01   1.5000000000000002E-01   1.7500000000000002E-01   2.0000000000000001E-01
 2.2500000000000001E-01   2.5000000000000000E-01   2.7500000000000002E-01   3.0000000000000004E-01   3.2500000000000001E-01   3.5000000000000003E-01
 3.7500000000000000E-01   4.0000000000000002E-01   4.2500000000000004E-01   4.5000000000000001E-01   4.7500000000000003E-01   5.0000000000000000E-01
 5.2500000000000002E-01   5.5000000000000004E-01   5.7500000000000007E-01   6.0000000000000009E-01   6.2500000000000000E-01   6.5000000000000002E-01
 6.7500000000000004E-01   7.0000000000000007E-01   7.2500000000000009E-01   7.5000000000000000E-01   7.7500000000000002E-01   8.0000000000000004E-01
 8.2500000000000007E-01   8.5000000000000009E-01   8.7500000000000000E-01   9.0000000000000002E-01   9.2500000000000004E-01   9.5000000000000007E-01
 9.7500000000000009E-01   1.0000000000000000E+00   0.0000000000000000E+00   2.5000000000000001E-02   5.0000000000000003E-02   7.5000000000000011E-02
 1.0000000000000001E-01   1.2500000000000000E-01   1.5000000000000002E-01   1.7500000000000002E-01   2.0000000000000001E-01   2.2500000000000001E-01
 2.5000000000000000E-01   2.7500000000000002E-01   3.0000000000000004E-01   3.2500000000000001E-01   3.5000000000000003E-01   3.7500000000000000E-01
 4.0000000000000002E-01   4.2500000000000004E-01   4.5000000000000001E-01   4.7500000000000003E-01   5.0000000000000000E-01   5.2500000000000002E-01
 5.5000000000000004E-01   5.7500000000000007E-01   6.0000000000000009E-01   6.2500000000000000E-01   6.5000000000000002E-01   6.7500000000000004E-01
 7.0000000000000007E-01   7.2500000000000009E-01   7.5000000000000000E-01   7.7500000000000002E-01   8.0000000000000004E-01   8.2500000000000007E-01
 8.5000000000000009E-01   8.7500000000000000E-01   9.0000000000000002E-01   9.2500000000000004E-01   9.5000000000000007E-01   9.7500000000000009E-01
 1.0000000000000000E+00   0.0000000000000000E+00   2.5000000000000001E-02   5.0000000000000003E-02   7.5000000000000011E-02   1.0000000000000001E-01
 1.2500000000000000E-01   1.5000000000000002E-01   1.7500000000000002E-01   2.0000000000000001E-01   2.2500000000000001E-01   2.5000000000000000E-01
 2.7500000000000002E-01   3.0000000000000004E-01   3.2500000000000001E-01   3.5000000000000003E-01   3.7500000000000000E-01   4.0000000000000002E-01
 4.2500000000000004E-01   4.5000000000000001E-01   4.7500000000000003E-01   5.0000000000000000E-01   5.2500000000000002E-01   5.5000000000000004E-01
 5.7500000000000007E-01   6.0000000000000009E-01   6.2500000000000000E-01   6.5000000000000002E-01   6.7500000000000004E-01   7.0000000000000007E-01
 7.2500000000000009E-01   7.5000000000000000E-01   7.7500000000000002E-01   8.0000000000000004E-01   8.2500000000000007E-01   8.5000000000000009E-01
 8.7500000000000000E-01   9.0000000000000002E-01   9.2500000000000004E-01   9.5000000000000007E-01   9.7500000000000009E-01   1.0000000000000000E+00
 0.0000000000000000E+00   2.5000000000000001E-02   5.0000000000000003E-02   7.5000000000000011E-02   1.0000000000000001E-01   1.2500000000000000E-01
 1.5000000000000002E-01   1.7500000000000002E-01   2.0000000000000001E-01   2.2500000000000001E-01   2.5000000000000000E-01   2.7500000000000002E-01
 3.0000000000000004E-01   3.2500000000000001E-01   3.5000000000000003E-01   3.7500000000000000E-01   4.0000000000000002E-01   4.2500000000000004E-01
 4.5000000000000001E-01   4.7500000000000003E-01   5.0000000000000000E-01   5.2500000000000002E-01   5.5000000000000004E-01   5.7500000000000007E-01
 6.0000000000000009E-01   6.2500000000000000E-01   6.5000000000000002E-01   6.7500000000000004E-01   7.0000000000000007E-01   7.2500000000000009E-01
 7.5000000000000000E-01   7.7500000000000002E-01   8.0000000000000004E-01   8.2500000000000007E-01   8.5000000000000009E-01   8.7500000000000000E-01
 9.0000000000000002E-01   9.2500000000000004E-01   9.5000000000000007E-01   9.7500000000000009E-01   1.0000000000000000E+00   0.0000000000000000E+00
 2.5000000000000001E-02   5.0000000000000003E-02   7.5000000000000011E-02   1.0000000000000001E-01   1.2500000000000000E-01   1.5000000000000002E-01
 1.7500000000000002E-01   2.0000000000000001E-01   2.2500000000000001E-01   2.5000000000000000E-01   2.7500000000000002E-01   3.0000000000000004E-01
 3.2500000000000001E-01   3.5000000000000003E-01   3.7500000000000000E-01   4.0000000000000002E-01   4.2500000000000004E-01   4.5000000000000001E-01
 4.7500000000000003E-01   5.0000000000000000E-01   5.2500000000000002E-01   5.5000000000000004E-01   5.7500000000000007E-01   6.0000000000000009E-01
 6.2500000000000000E-01   6.5000000000000002E-01   6.7500000000000004E-01   7.0000000000000007E-01   7.2500000000000009E-01   7.5000000000000000E-01
 7.7500000000000002E-01   8.0000000000000004E-01   8.2500000000000007E-01   8.5000000000000009E-01   8.7500000000000000E-01   9.0000000000000002E-01
 9.2500000000000004E-01   9.5000000000000007E-01   9.7500000000000009E-01   1.0000000000000000E+00   0.0000000000000000E+00   2.5000000000000001E-02
 5.0000000000000003E-02   7.5000000000000011E-02   1.0000000000000001E-01   1.2500000000000000E-01   1.5000000000000002E-01   1.7500000000000002E-01
 2.0000000000000001E-01   2.2500000000000001E-01   2.5000000000000000E-01   2.7500000000000002E-01   3.0000000000000004E-01   3.2500000000000001E-01
 3.5000000000000003E-01   3.7500000000000000E-01   4.0000000000000002E-01   4.2500000000000004E-01   4.5000000000000001E-01   4.7500000000000003E-01
 5.0000000000000000E-01   5.2500000000000002E-01   5.5000000000000004E-01   5.7500000000000007E-01   6.0000000000000009E-01   6.2500000000000000E-01
 6.5000000000000002E-01   6.7500000000000004E-01   7.0000000000000007E-01   7.2500000000000009E-01   7.5000000000000000E-01   7.7500000000000002E-01
 8.0000000000000004E-01   8.2500000000000007E-01   8.5000000000000009E-01   8.7500000000000000E-01   9.0000000000000002E-01   9.2500000000000004E-01
 9.5000000000000007E-01   9.7500000000000009E-01   1.0000000000000000E+00   0.0000000000000000E+00   2.5000000000000001E-02   5.0000000000000003E-02
 7.5000000000000011E-02   1.0000000000000001E-01   1.2500000000000000E-01   1.5000000000000002E-01   1.7500000000000002E-01   2.0000000000000001E-01
 2.2500000000000001E-01   2.5000000000000000E-01   2.7500000000000002E-01   3.0000000000000004E-01   3.2500000000000001E-01   3.5000000000000003E-01
 3.7500000000000000E-01   4.0000000000000002E-01   4.2500000000000004E-01   4.5000000000000001E-01   4.7500000000000003E-01   5.0000000000000000E-01
 5.2500000000000002E-01   5.5000000000000004E-01   5.7500000000000007E-01   6.0000000000000009E-01   6.2500000000000000E-01   6.5000000000000002E-01
 6.7500000000000004E-01   7.0000000000000007E-01   7.2500000000000009E-01   7.5000000000000000E-01   7.7500000000000002E-01   8.0000000000000004E-01
 8.2500000000000007E-01   8.5000000000000009E-01   8.7500000000000000E-01   9.0000000000000002E-01   9.2500000000000004E-01   9.5000000000000007E-01
 9.7500000000000009E-01   1.0000000000000000E+00   0.0000000000000000E+00   2.5000000000000001E-02   5.0000000000000003E-02   7.5000000000000011E-02
 1.0000000000000001E-01   1.2500000000000000E-01   1.5000000000000002E-01   1.7500000000000002E-01   2.0000000000000001E-01   2.2500000000000001E-01
 2.5000000000000000E-01   2.7500000000000002E-01   3.0000000000000004E-01   3.2500000000000001E-01   3.5000000000000003E-01   3.7500000000000000E-01
 4.0000000000000002E-01   4.2500000000000004E-01   4.5000000000000001E-01   4.7500000000000003E-01   5.0000000000000000E-01   5.2500000000000002E-01
 5.5000000000000004E-01   5.7500000000000007E-01   6.0000000000000009E-01   6.2500000000000000E-01   6.5000000000000002E-01   6.7500000000000004E-01
 7.0000000000000007E-01   7.2500000000000009E-01   7.5000000000000000E-01   7.7500000000000002E-01   8.0000000000000004E-01   8.2500000000000007E-01
 8.5000000000000009E-01   8.7500000000000000E-01   9.0000000000000002E-01   9.2500000000000004E-01   9.5000000000000007E-01   9.7500000000000009E-01
 1.0000000000000000E+00   0.0000000000000000E+00   2.5000000000000001E-02   5.0000000000000003E-02   7.5000000000000011E-02   1.0000000000000001E-01
 1.2500000000000000E-01   1.5000000000000002E-01   1.7500000000000002E-01   2.0000000000000001E-01   2.2500000000000001E-01   2.5000000000000000E-01