 VARIABLES = X, Y, RHO, U, V, P, T, QX, QY, index1, index2
 ZONE  I =           21 , J =           21 DATAPACKING=BLOCK, VARLOCATION=([3-11]=CELLCENTERED)
 0.0000000000000000E+00   5.0000000000000003E-02   1.0000000000000001E-01   1.5000000000000002E-01   2.0000000000000001E-01   2.5000000000000000E-01
 3.0000000000000004E-01   3.5000000000000003E-01   4.0000000000000002E-01   4.5000000000000001E-01   5.0000000000000000E-01   5.5000000000000004E-01
 6.0000000000000009E-01   6.5000000000000002E-01   7.0000000000000007E-01   7.5000000000000000E-01   8.0000000000000004E-01   8.5000000000000009E-01
 9.0000000000000002E-01   9.5000000000000007E-01   1.0000000000000000E+00   0.0000000000000000E+00   5.0000000000000003E-02   1.0000000000000001E-01
 1.5000000000000002E-01   2.0000000000000001E-01   2.5000000000000000E-01   3.0000000000000004E-01   3.5000000000000003E-01   4.0000000000000002E-01
 4.5000000000000001E-01   5.0000000000000000E-01   5.5000000000000004E-01   6.0000000000000009E-01   6.5000000000000002E-01   7.0000000000000007E-01
 7.5000000000000000E-01   8.0000000000000004E-01   8.5000000000000009E-01   9.0000000000000002E-01   9.5000000000000007E-01   1.0000000000000000E+00
 0.0000000000000000E+00   5.0000000000000003E-02   1.0000000000000001E-01   1.5000000000000002E-01   2.0000000000000001E-01   2.5000000000000000E-01
 3.0000000000000004E-01   3.5000000000000003E-01   4.0000000000000002E-01   4.5000000000000001E-01   5.0000000000000000E-01   5.5000000000000004E-01
 6.0000000000000009E-01   6.5000000000000002E-01   7.0000000000000007E-01   7.5000000000000000E-01   8.0000000000000004E-01   8.5000000000000009E-01
 9.0000000000000002E-01   9.5000000000000007E-01   1.0000000000000000E+00   0.0000000000000000E+00   5.0000000000000003E-02   1.0000000000000001E-01
 1.5000000000000002E-01   2.0000000000000001E-01   2.5000000000000000E-01   3.0000000000000004E-01   3.5000000000000003E-01   4.0000000000000002E-01
 4.5000000000000001E-01   5.0000000000000000E-01   5.5000000000000004E-01   6.0000000000000009E-01   6.5000000000000002E-01   7.0000000000000007E-01
 7.5000000000000000E-01   8.0000000000000004E-01   8.5000000000000009E-01   9.0000000000000002E-01   9.5000000000000007E-01   1.0000000000000000E+00
 0.0000000000000000E+00   5.0000000000000003E-02   1.0000000000000001E-01   1.5000000000000002E-01   2.0000000000000001E-01   2.5000000000000000E-01
 3.0000000000000004E-01   3.5000000000000003E-01   4.0000000000000002E-01   4.5000000000000001E-01   5.0000000000000000E-01   5.5000000000000004E-01
 6.0000000000000009E-01   6.5000000000000002E-01   7.0000000000000007E-01   7.5000000000000000E-01   8.0000000000000004E-01   8.5000000000000009E-01
 9.0000000000000002E-01   9.5000000000000007E-01   1.0000000000000000E+00   0.0000000000000000E+00   5.0000000000000003E-02   1.0000000000000001E-01
 1.5000000000000002E-01   2.0000000000000001E-01   2.5000000000000000E-01   3.0000000000000004E-01   3.5000000000000003E-01   4.0000000000000002E-01
 4.5000000000000001E-01   5.0000000000000000E-01   5.5000000000000004E-01   6.0000000000000009E-01   6.5000000000000002E-01   7.0000000000000007E-01
 7.5000000000000000E-01   8.0000000000000004E-01   8.5000000000000009E-01   9.0000000000000002E-01   9.5000000000000007E-01   1.0000000000000000E+00
 0.0000000000000000E+00   5.0000000000000003E-02   1.0000000000000001E-01   1.5000000000000002E-01   2.0000000000000001E-01   2.5000000000000000E-01
 3.0000000000000004E-01   3.5000000000000003E-01   4.0000000000000002E-01   4.5000000000000001E-01   5.0000000000000000E-01   5.5000000000000004E-01
 6.0000000000000009E-01   6.5000000000000002E-01   7.0000000000000007E-01   7.5000000000000000E-01   8.0000000000000004E-01   8.5000000000000009E-01
 9.0000000000000002E-01   9.5000000000000007E-01   1.0000000000000000E+00   0.0000000000000000E+00   5.0000000000000003E-02   1.0000000000000001E-01
 1.5000000000000002E-01   2.0000000000000001E-01   2.5000000000000000E-01   3.0000000000000004E-01   3.5000000000000003E-01   4.0000000000000002E-01
 4.5000000000000001E-01   5.0000000000000000E-01   5.5000000000000004E-01   6.0000000000000009E-01   6.5000000000000002E-01   7.0000000000000007E-01
 7.5000000000000000E-01   8.0000000000000004E-01   8.5000000000000009E-01   9.0000000000000002E-01   9.5000000000000007E-01   1.0000000000000000E+00
 0.0000000000000000E+00   5.0000000000000003E-02   1.0000000000000001E-01   1.5000000000000002E-01   2.0000000000000001E-01   2.5000000000000000E-01
 3.0000000000000004E-01   3.5000000000000003E-01   4.0000000000000002E-01   4.5000000000000001E-01   5.0000000000000000E-01   5.5000000000000004E-01
 6.0000000000000009E-01   6.5000000000000002E-01   7.0000000000000007E-01   7.5000000000000000E-01   8.0000000000000004E-01   8.5000000000000009E-01
 9.0000000000000002E-01   9.5000000000000007E-01   1.0000000000000000E+00   0.0000000000000000E+00   5.0000000000000003E-02   1.0000000000000001E-01
 1.5000000000000002E-01   2.0000000000000001E-01   2.5000000000000000E-01   3.0000000000000004E-01   3.5000000000000003E-01   4.0000000000000002E-01
 4.5000000000000001E-01   5.0000000000000000E-01   5.5000000000000004E-01   6.0000000000000009E-01   6.5000000000000002E-01   7.0000000000000007E-01
 7.5000000000000000E-01   8.0000000000000004E-01   8.5000000000000009E-01   9.0000000000000002E-01   9.5000000000000007E-01   1.0000000000000000E+00
 0.0000000000000000E+00   5.0000000000000003E-02   1.0000000000000001E-01   1.5000000000000002E-01   2.0000000000000001E-01   2.5000000000000000E-01
 3.0000000000000004E-01   3.5000000000000003E-01   4.0000000000000002E-01   4.5000000000000001E-01   5.0000000000000000E-01   5.5000000000000004E-01
 6.0000000000000009E-01   6.5000000000000002E-01   7.0000000000000007E-01   7.5000000000000000E-01   8.0000000000000004E-01   8.5000000000000009E-01
 9.0000000000000002E-01   9.5000000000000007E-01   1.0000000000000000E+00   0.0000000000000000E+00   5.0000000000000003E-02   1.0000000000000001E-01
 1.5000000000000002E-01   2.0000000000000001E-01   2.5000000000000000E-01   3.0000000000000004E-01   3.5000000000000003E-01   4.0000000000000002E-01
 4.5000000000000001E-01   5.0000000000000000E-01   5.5000000000000004E-01   6.0000000000000009E-01   6.5000000000000002E-01   7.0000000000000007E-01
 7.5000000000000000E-01   8.0000000000000004E-01   8.5000000000000009E-01   9.0000000000000002E-01   9.5000000000000007E-01   1.0000000000000000E+00
 0.0000000000000000E+00   5.0000000000000003E-02   1.0000000000000001E-01   1.5000000000000002E-01   2.0000000000000001E-01   2.5000000000000000E-01
 3.0000000000000004E-01   3.5000000000000003E-01   4.0000000000000002E-01   4.5000000000000001E-01   5.0000000000000000E-01   5.5000000000000004E-01
 6.0000000000000009E-01   6.5000000000000002E-01   7.0000000000000007E-01   7.5000000000000000E-01   8.0000000000000004E-01   8.5000000000000009E-01
 9.0000000000000002E-01   9.5000000000000007E-01   1.0000000000000000E+00   0.0000000000000000E+00   5.0000000000000003E-02   1.0000000000000001E-01
 1.5000000000000002E-01   2.0000000000000001E-01   2.5000000000000000E-01   3.0000000000000004E-01   3.5000000000000003E-01   4.0000000000000002E-01
 4.5000000000000001E-01   5.0000000000000000E-01   5.5000000000000004E-01   6.0000000000000009E-01   6.5000000000000002E-01   7.0000000000000007E-01
 7.5000000000000000E-01   8.0000000000000004E-01   8.5000000000000009E-01   9.0000000000000002E-01   9.5000000000000007E-01   1.0000000000000000E+00
 0.0000000000000000E+00   5.0000000000000003E-02   1.0000000000000001E-01   1.5000000000000002E-01   2.0000000000000001E-01   2.5000000000000000E-01
 3.0000000000000004E-01   3.5000000000000003E-01   4.0000000000000002E-01   4.5000000000000001E-01   5.0000000000000000E-01   5.5000000000000004E-01
 6.0000000000000009E-01   6.5000000000000002E-01   7.0000000000000007E-01   7.5000000000000000E-01   8.0000000000000004E-01   8.5000000000000009E-01
 9.0000000000000002E-01   9.5000000000000007E-01   1.0000000000000000E+00   0.0000000000000000E+00   5.0000000000000003E-02   1.0000000000000001E-01
 1.5000000000000002E-01   2.0000000000000001E-01   2.5000000000000000E-01   3.0000000000000004E-01   3.5000000000000003E-01   4.0000000000000002E-01
 4.5000000000000001E-01   5.0000000000000000E-01   5.5000000000000004E-01   6.0000000000000009E-01   6.5000000000000002E-01   7.0000000000000007E-01
 7.5000000000000000E-01   8.0000000000000004E-01   8.5000000000000009E-01   9.0000000000000002E-01   9.5000000000000007E-01   1.0000000000000000E+00
 0.0000000000000000E+00   5.0000000000000003E-02   1.0000000000000001E-01   1.5000000000000002E-01   2.0000000000000001E-01   2.5000000000000000E-01
 3.0000000000000004E-01   3.5000000000000003E-01   4.0000000000000002E-01   4.5000000000000001E-01   5.0000000000000000E-01   5.5000000000000004E-01
 6.0000000000000009E-01   6.5000000000000002E-01   7.0000000000000007E-01   7.5000000000000000E-01   8.0000000000000004E-01   8.5000000000000009E-01
 9.0000000000000002E-01   9.5000000000000007E-01   1.0000000000000000E+00   0.0000000000000000E+00   5.0000000000000003E-02   1.0000000000000001E-01
 1.5000000000000002E-01   2.0000000000000001E-01   2.5000000000000000E-01   3.0000000000000004E-01   3.5000000000000003E-01   4.0000000000000002E-01
 4.5000000000000001E-01   5.0000000000000000E-01   5.5000000000000004E-01   6.0000000000000009E-01   6.5000000000000002E-01   7.0000000000000007E-01
 7.5000000000000000E-01   8.0000000000000004E-01   8.5000000000000009E-01   9.0000000000000002E-01   9.5000000000000007E-01   1.0000000000000000E+00
 0.0000000000000000E+00   5.0000000000000003E-02   1.0000000000000001E-01   1.5000000000000002E-01   2.0000000000000001E-01   2.5000000000000000E-01
 3.0000000000000004E-01   3.5000000000000003E-01   4.0000000000000002E-01   4.5000000000000001E-01   5.0000000000000000E-01   5.5000000000000004E-01
 6.0000000000000009E-01   6.5000000000000002E-01   7.0000000000000007E-01   7.5000000000000000E-01   8.0000000000000004E-01   8.5000000000000009E-01
 9.0000000000000002E-01   9.5000000000000007E-01   1.0000000000000000E+00   0.0000000000000000E+00   5.0000000000000003E-02   1.0000000000000001E-01
 1.5000000000000002E-01   2.0000000000000001E-01   2.5000000000000000E-01   3.0000000000000004E-01   3.5000000000000003E-01   4.0000000000000002E-01
 4.5000000000000001E-01   5.0000000000000000E-01   5.5000000000000004E-01   6.0000000000000009E-01   6.5000000000000002E-01   7.0000000000000007E-01
 7.5000000000000000E-01   8.0000000000000004E-01   8.5000000000000009E-01   9.0000000000000002E-01   9.5000000000000007E-01   1.0000000000000000E+00
 0.0000000000000000E+00   5.0000000000000003E-02   1.0000000000000001E-01   1.5000000000000002E-01   2.0000000000000001E-01   2.5000000000000000E-01
 3.0000000000000004E-01   3.5000000000000003E-01   4.0000000000000002E-01   4.5000000000000001E-01   5.0000000000000000E-01   5.5000000000000004E-01
 6.0000000000000009E-01   6.5000000000000002E-01   7.0000000000000007E-01   7.5000000000000000E-01   8.0000000000000004E-01   8.5000000000000009E-01
 9.0000000000000002E-01   9.5000000000000007E-01   1.0000000000000000E+00
 0.0000000000000000E+00   0.0000000000000000E+00   0.0000000000000000E+00   0.0000000000000000E+00   0.0000000000000000E+00   0.0000000000000000E+00
 0.0000000000000000E+00   0.0000000000000000E+00   0.0000000000000000E+00   0.0000000000000000E+00   0.0000000000000000E+00   0.0000000000000000E+00
 0.0000000000000000E+00   0.0000000000000000E+00   0.0000000000000000E+00   0.0000000000000000E+00   0.0000000000000000E+00   0.0000000000000000E+00
 0.0000000000000000E+00   0.0000000000000000E+00   0.0000000000000000E+00   5.0000000000000003E-02   5.0000000000000003E-02   5.0000000000000003E-02
 5.0000000000000003E-02   5.0000000000000003E-02   5.0000000000000003E-02   5.0000000000000003E-02   5.0000000000000003E-02   5.0000000000000003E-02
 5.0000000000000003E-02   5.0000000000000003E-02   5.0000000000000003E-02   5.0000000000000003E-02   5.0000000000000003E-02   5.0000000000000003E-02
 5.0000000000000003E-02   5.0000000000000003E-02   5.0000000000000003E-02   5.0000000000000003E-02   5.0000000000000003E-02   5.0000000000000003E-02
 1.0000000000000001E-01   1.0000000000000001E-01   1.0000000000000001E-01   1.0000000000000001E-01   1.0000000000000001E-01   1.0000000000000001E-01
 1.0000000000000001E-01   1.0000000000000001E-01   1.0000000000000001E-01   1.0000000000000001E-01   1.0000000000000001E-01   1.0000000000000001E-01
 1.0000000000000001E-01   1.0000000000000001E-01   1.0000000000000001E-01   1.0000000000000001E-01   1.0000000000000001E-01   1.0000000000000001E-01
 1.0000000000000001E-01   1.0000000000000001E-01   1.0000000000000001E-01   1.5000000000000002E-01   1.5000000000000002E-01   1.5000000000000002E-01
 1.5000000000000002E-01   1.5000000000000002E-01   1.5000000000000002E-01   1.5000000000000002E-01   1.5000000000000002E-01   1.5000000000000002E-01
 1.5000000000000002E-01   1.5000000000000002E-01   1.5000000000000002E-01   1.5000000000000002E-01   1.5000000000000002E-01   1.5000000000000002E-01
 1.5000000000000002E-01   1.5000000000000002E-01   1.5000000000000002E-01   1.5000000000000002E-01   1.5000000000000002E-01   1.5000000000000002E-01
 2.0000000000000001E-01   2.0000000000000001E-01   2.0000000000000001E-01   2.0000000000000001E-01   2.0000000000000001E-01   2.0000000000000001E-01
 2.0000000000000001E-01   2.0000000000000001E-01   2.0000000000000001E-01   2.0000000000000001E-01   2.0000000000000001E-01   2.0000000000000001E-01
 2.0000000000000001E-01   2.0000000000000001E-01   2.0000000000000001E-01   2.0000000000000001E-01   2.0000000000000001E-01   2.0000000000000001E-01
 2.0000000000000001E-01   2.0000000000000001E-01   2.0000000000000001E-01   2.5000000000000000E-01   2.5000000000000000E-01   2.5000000000000000E-01
 2.5000000000000000E-01   2.5000000000000000E-01   2.5000000000000000E-01   2.5000000000000000E-01   2.5000000000000000E-01   2.5000000000000000E-01
 2.5000000000000000E-01   2.5000000000000000E-01   2.5000000000000000E-01   2.5000000000000000E-01   2.5000000000000000E-01   2.5000000000000000E-01
 2.5000000000000000E-01   2.5000000000000000E-01   2.5000000000000000E-01   2.5000000000000000E-01   2.5000000000000000E-01   2.5000000000000000E-01
 3.0000000000000004E-01   3.0000000000000004E-01   3.0000000000000004E-01   3.0000000000000004E-01   3.0000000000000004E-01   3.0000000000000004E-01
 3.0000000000000004E-01   3.0000000000000004E-01   3.0000000000000004E-01   3.0000000000000004E-01   3.0000000000000004E-01   3.0000000000000004E-01
 3.0000000000000004E-01   3.0000000000000004E-01   3.0000000000000004E-01   3.0000000000000004E-01   3.0000000000000004E-01   3.0000000000000004E-01
 3.0000000000000004E-01   3.0000000000000004E-01   3.0000000000000004E-01   3.5000000000000003E-01   3.5000000000000003E-01   3.5000000000000003E-01
 3.5000000000000003E-01   3.5000000000000003E-01   3.5000000000000003E-01   3.5000000000000003E-01   3.5000000000000003E-01   3.5000000000000003E-01
 3.5000000000000003E-01   3.5000000000000003E-01   3.5000000000000003E-01   3.5000000000000003E-01   3.5000000000000003E-01   3.5000000000000003E-01
 3.5000000000000003E-01   3.5000000000000003E-01   3.5000000000000003E-01   3.5000000000000003E-01   3.5000000000000003E-01   3.5000000000000003E-01
 4.0000000000000002E-01   4.0000000000000002E-01   4.0000000000000002E-01   4.0000000000000002E-01   4.0000000000000002E-01   4.0000000000000002E-01
 4.0000000000000002E-01   4.0000000000000002E-01   4.0000000000000002E-01   4.0000000000000002E-01   4.0000000000000002E-01   4.0000000000000002E-01
 4.0000000000000002E-01   4.0000000000000002E-01   4.0000000000000002E-01   4.0000000000000002E-01   4.0000000000000002E-01   4.0000000000000002E-01
 4.0000000000000002E-01   4.0000000000000002E-01   4.0000000000000002E-01   4.5000000000000001E-01   4.5000000000000001E-01   4.5000000000000001E-01
 4.5000000000000001E-01   4.5000000000000001E-01   4.5000000000000001E-01   4.5000000000000001E-01   4.5000000000000001E-01   4.5000000000000001E-01
 4.5000000000000001E-01   4.5000000000000001E-01   4.5000000000000001E-01   4.5000000000000001E-01   4.5000000000000001E-01   4.5000000000000001E-01
 4.5000000000000001E-01   4.5000000000000001E-01   4.5000000000000001E-01   4.5000000000000001E-01   4.5000000000000001E-01   4.5000000000000001E-01
 5.0000000000000000E-01   5.0000000000000000E-01   5.0000000000000000E-01   5.0000000000000000E-01   5.0000000000000000E-01   5.0000000000000000E-01
 5.0000000000000000E-01   5.0000000000000000E-01   5.0000000000000000E-01   5.0000000000000000E-01   5.0000000000000000E-01   5.0000000000000000E-01
 5.0000000000000000E-01   5.0000000000000000E-01   5.0000000000000000E-01   5.0000000000000000E-01   5.0000000000000000E-01   5.0000000000000000E-01
 5.0000000000000000E-01   5.0000000000000000E-01   5.0000000000000000E-01   5.5000000000000004E-01   5.5000000000000004E-01   5.5000000000000004E-01
 5.5000000000000004E-01   5.5000000000000004E-01   5.5000000000000004E-01   5.5000000000000004E-01   5.5000000000000004E-01   5.5000000000000004E-01
 5.5000000000000004E-01   5.5000000000000004E-01   5.5000000000000004E-01   5.5000000000000004E-01   5.5000000000000004E-01   5.5000000000000004E-01
 5.5000000000000004E-01   5.5000000000000004E-01   5.5000000000000004E-01   5.5000000000000004E-01   5.5000000000000004E-01   5.5000000000000004E-01
 6.0000000000000009E-01   6.0000000000000009E-01   6.0000000000000009E-01   6.0000000000000009E-01   6.0000000000000009E-01   6.0000000000000009E-01
 6.0000000000000009E-01   6.0000000000000009E-01   6.0000000000000009E-01   6.0000000000000009E-01   6.0000000000000009E-01   6.0000000000000009E-01
 6.0000000000000009E-01   6.0000000000000009E-01   6.0000000000000009E-01   6.0000000000000009E-01   6.0000000000000009E-01   6.0000000000000009E-01
 6.0000000000000009E-01   6.0000000000000009E-01   6.0000000000000009E-01   6.5000000000000002E-01   6.5000000000000002E-01   6.5000000000000002E-01
 6.5000000000000002E-01   6.5000000000000002E-01   6.5000000000000002E-01   6.5000000000000002E-01   6.5000000000000002E-01   6.5000000000000002E-01
 6.5000000000000002E-01   6.5000000000000002E-01   6.5000000000000002E-01   6.5000000000000002E-01   6.5000000000000002E-01   6.5000000000000002E-01
 6.5000000000000002E-01   6.5000000000000002E-01   6.5000000000000002E-01   6.5000000000000002E-01   6.5000000000000002E-01   6.5000000000000002E-01
 7.0000000000000007E-01   7.0000000000000007E-01   7.0000000000000007E-01   7.0000000000000007E-01   7.0000000000000007E-01   7.0000000000000007E-01
 7.0000000000000007E-01   7.0000000000000007E-01   7.0000000000000007E-01   7.0000000000000007E-01   7.0000000000000007E-01   7.0000000000000007E-01
 7.0000000000000007E-01   7.0000000000000007E-01   7.0000000000000007E-01   7.0000000000000007E-01   7.0000000000000007E-01   7.0000000000000007E-01
 7.0000000000000007E-01   7.0000000000000007E-01   7.0000000000000007E-01   7.5000000000000000E-01   7.5000000000000000E-01   7.5000000000000000E-01
 7.5000000000000000E-01   7.5000000000000000E-01   7.5000000000000000E-01   7.5000000000000000E-01   7.5000000000000000E-01   7.5000000000000000E-01
 7.5000000000000000E-01   7.5000000000000000E-01   7.5000000000000000E-01   7.5000000000000000E-01   7.5000000000000000E-01   7.5000000000000000E-01
 7.5000000000000000E-01   7.5000000000000000E-01   7.5000000000000000E-01   7.5000000000000000E-01   7.5000000000000000E-01   7.5000000000000000E-01
 8.0000000000000004E-01   8.0000000000000004E-01   8.0000000000000004E-01   8.0000000000000004E-01   8.0000000000000004E-01   8.0000000000000004E-01
 8.0000000000000004E-01   8.0000000000000004E-01   8.0000000000000004E-01   8.0000000000000004E-01   8.0000000000000004E-01   8.0000000000000004E-01
 8.0000000000000004E-01   8.0000000000000004E-01   8.0000000000000004E-01   8.0000000000000004E-01   8.0000000000000004E-01   8.0000000000000004E-01
 8.0000000000000004E-01   8.0000000000000004E-01   8.0000000000000004E-01   8.5000000000000009E-01   8.5000000000000009E-01   8.5000000000000009E-01
 8.5000000000000009E-01   8.5000000000000009E-01   8.5000000000000009E-01   8.5000000000000009E-01   8.5000000000000009E-01   8.5000000000000009E-01
 8.5000000000000009E-01   8.5000000000000009E-01   8.5000000000000009E-01   8.5000000000000009E-01   8.5000000000000009E-01   8.5000000000000009E-01
 8.5000000000000009E-01   8.5000000000000009E-01   8.5000000000000009E-01   8.5000000000000009E-01   8.5000000000000009E-01   8.5000000000000009E-01
 9.0000000000000002E-01   9.0000000000000002E-01   9.0000000000000002E-01   9.0000000000000002E-01   9.0000000000000002E-01   9.0000000000000002E-01
 9.0000000000000002E-01   9.0000000000000002E-01   9.0000000000000002E-01   9.0000000000000002E-01   9.0000000000000002E-01   9.0000000000000002E-01
 9.0000000000000002E-01   9.0000000000000002E-01   9.0000000000000002E-01   9.0000000000000002E-01   9.0000000000000002E-01   9.0000000000000002E-01
 9.0000000000000002E-01   9.0000000000000002E-01   9.0000000000000002E-01   9.5000000000000007E-01   9.5000000000000007E-01   9.5000000000000007E-01
 9.5000000000000007E-01   9.5000000000000007E-01   9.5000000000000007E-01   9.5000000000000007E-01   9.5000000000000007E-01   9.5000000000000007E-01
 9.5000000000000007E-01   9.5000000000000007E-01   9.5000000000000007E-01   9.5000000000000007E-01   9.5000000000000007E-01   9.5000000000000007E-01
 9.5000000000000007E-01   9.5000000000000007E-01   9.5000000000000007E-01   9.5000000000000007E-01   9.5000000000000007E-01   9.5000000000000007E-01
 1.0000000000000000E+00   1.0000000000000000E+00   1.0000000000000000E+00   1.0000000000000000E+00   1.0000000000000000E+00   1.0000000000000000E+00
 1.0000000000000000E+00   1.0000000000000000E+00   1.0000000000000000E+00   1.0000000000000000E+00   1.0000000000000000E+00   1.0000000000000000E+00
 1.0000000000000000E+00   1.0000000000000000E+00   1.0000000000000000E+00   1.0000000000000000E+00   1.0000000000000000E+00   1.0000000000000000E+00
 1.0000000000000000E+00   1.0000000000000000E+00   1.0000000000000000E+00
 1.0118862276411549E+00   1.0345851889996840E+00   1.0540110423999256E+00   1.0683447864220885E+00   1.0763904181718345E+00   1.0763904162370714E+00
 1.0683447824663199E+00   1.0540110358731631E+00   1.0345851796883780E+00   1.0118862158183131E+00   9.8808554609801102E-01   9.6537570419933871E-01
 9.4591880313061949E-01   9.3156173425471345E-01   9.2348936005549276E-01   9.2348936492734168E-01   9.3156174291686245E-01   9.4591881581617476E-01
 9.6537571870702954E-01   9.8808556058190544E-01   1.0266808728048167E+00   1.0776303952077055E+00   1.1212569599694393E+00   1.1534340451288105E+00
 1.1715190679466101E+00   1.1715190636038901E+00   1.1534340362465507E+00   1.1212569453119579E+00   1.0776303743117490E+00   1.0266808462802561E+00
 9.7327505705278405E-01   9.2233627152710995E-01   8.7871288317588248E-01   8.4653901054766478E-01   8.2845560217221059E-01   8.2845561309412785E-01
 8.4653902992883889E-01   8.7871291162898335E-01   9.2233630405198908E-01   9.7327508953867614E-01   1.0389593145289422E+00   1.1133823293868246E+00
 1.1771213975048731E+00   1.2241261178664598E+00   1.2505561884769165E+00   1.2505561821316695E+00   1.2241261048869350E+00   1.1771213760919041E+00
 1.1133822988619411E+00   1.0389592757909807E+00   9.6096182130913288E-01   8.8658118024459343E-01   8.2289303042509099E-01   7.7594341480091034E-01
 7.4954927852194697E-01   7.4954929446341756E-01   7.7594344308835639E-01   8.2289307194292682E-01   8.8658122774209536E-01   9.6096186874834832E-01
 1.0475080794015603E+00   1.1382880090938725E+00   1.2160414937248143E+00   1.2733698599828063E+00   1.3056086253722263E+00   1.3056086176337600E+00
 1.2733698441562493E+00   1.2160414676205145E+00   1.1382879718534533E+00   1.0475080321362551E+00   9.5237293434873171E-01   8.6166101766597825E-01
 7.8399696134526820E-01   7.2677418382948267E-01   6.9460852773810211E-01   6.9460854716980103E-01   7.2677421828538880E-01   7.8399701194717841E-01
 8.6166107558913896E-01   9.5237299220393079E-01   1.0518751042074999E+00   1.1510137740321189E+00   1.2359251380786787E+00   1.2985355232275766E+00
 1.3337440666574170E+00   1.3337440582068605E+00   1.2985355059446251E+00   1.2359251095600552E+00   1.1510137333659864E+00   1.0518750525986613E+00
 9.4799117219312945E-01   8.4894204307918764E-01   7.6414550432230244E-01   7.0167603575572357E-01   6.6656246860439805E-01   6.6656248981726229E-01
 7.0167607336225390E-01   7.6414555958512542E-01   8.4894210632016931E-01   9.4799123536748120E-01   1.0501202228900399E+00   1.1459078346544718E+00
 1.2279487448093998E+00   1.2884418446769463E+00   1.3224599497080114E+00   1.3224599415424187E+00   1.2884418279771033E+00   1.2279487172550145E+00
 1.1459077953613772E+00   1.0501201730214254E+00   9.4974589009202337E-01   8.5403985255501536E-01   7.7210475650030341E-01   7.1173886507698103E-01
 6.7780654466266044E-01   6.7780656516598825E-01   7.1173890141918872E-01   7.7210480989542329E-01   8.5403991366295295E-01   9.4974595113351112E-01
 1.0437732281271079E+00   1.1273960424454514E+00   1.1990151701652401E+00   1.2518304951950903E+00   1.2815301615829187E+00   1.2815301544541655E+00
 1.2518304806113849E+00   1.1990151461167915E+00   1.1273960081456169E+00   1.0437731845984211E+00   9.5613571239874040E-01   8.7256802963311897E-01
 8.0102274177016453E-01   7.4828880760079686E-01   7.1864562014392963E-01   7.1864563805056336E-01   7.4828883936761048E-01   8.0102278839815944E-01
 8.7256808299415944E-01   9.5613576569914027E-01   1.0332089889914200E+00   1.0966403787181671E+00   1.1509619524896975E+00   1.1910234227089114E+00
 1.2135407817243524E+00   1.2135407763172392E+00   1.1910234116470124E+00   1.1509619342445139E+00   1.0966403526973423E+00   1.0332089559654676E+00
 9.6672383865958489E-01   9.0331719240664587E-01   8.4901876430591772E-01   8.0898213082880177E-01   7.8648084510222704E-01   7.8648085869519324E-01
 8.0898215495131343E-01   8.4901879969698624E-01   9.0331723289683452E-01   9.6672387909772239E-01   1.0195143330252652E+00   1.0567755647803261E+00
 1.0886789905315724E+00   1.1122087843985047E+00   1.1254325225005557E+00   1.1254325193245807E+00   1.1122087779040526E+00   1.0886789798085141E+00
 1.0567755494981022E+00   1.0195143136268521E+00   9.8045372643099360E-01   9.4319262192910247E-01   9.1127516238704098E-01   8.8773296995625817E-01
 8.7449653072470579E-01   8.7449653871818811E-01   8.8773298413980284E-01   9.1127518320841261E-01   9.4319264572326322E-01   9.8045375019312475E-01
 1.0039852753057519E+00   1.0116040669618260E+00   1.0181141366260209E+00   1.0229175364818821E+00   1.0256077983805698E+00   1.0256077977307436E+00
 1.0229175351618176E+00   1.0181141344311955E+00   1.0116040638362309E+00   1.0039852713331663E+00   9.9599188284908224E-01   9.8835878022126111E-01
 9.8180804682333533E-01   9.7697379280172214E-01   9.7425018629617932E-01   9.7425018793494800E-01   9.7697379572889076E-01   9.8180805109128289E-01
 9.8835878510312192E-01   9.9599188772233249E-01   9.8808547612938413E-01   9.6537533365321238E-01   9.4591705491847700E-01   9.3155898089213407E-01
 9.2348581420624387E-01   9.2348581614270786E-01   9.3155898486532218E-01   9.4591706145281285E-01   9.6537534296442618E-01   9.8808548794011886E-01
 1.0118863242085872E+00   1.0345855893893587E+00   1.0540127813492575E+00   1.0683475471320878E+00   1.0763939342941518E+00   1.0763939294207912E+00
 1.0683475385083694E+00   1.0540127686820724E+00   1.0345855749034694E+00   1.0118863097482447E+00   9.7327496566920035E-01   9.2233590679398192E-01
 8.7871131857571538E-01   8.4653645375347308E-01   8.2845234450177152E-01   8.2845234884204044E-01   8.4653646265200178E-01   8.7871133323125783E-01
 9.2233592767856754E-01   9.7327499217385305E-01   1.0266809690463665E+00   1.0776307791710924E+00   1.1212585209598651E+00   1.1534366169319943E+00
 1.1715223250013487E+00   1.1715223140574853E+00   1.1534365975703829E+00   1.1212584924800897E+00   1.0776307466506494E+00   1.0266809365872513E+00
 9.6096172662549884E-01   8.8658080977880471E-01   8.2289143467207992E-01   7.7594084881122505E-01   7.4954600880692457E-01   7.4954601514409713E-01
 7.7594086180179767E-01   8.2289145606988223E-01   8.8658084027640960E-01   9.6096176533312250E-01   1.0389594101252131E+00   1.1133827105794039E+00
 1.1771229951755120E+00   1.2241287114113084E+00   1.2505594862856693E+00   1.2505594702942995E+00   1.2241286831056875E+00   1.1771229535768313E+00
 1.1133826630613040E+00   1.0389593627245191E+00   9.5237284935914202E-01   8.6166069492210839E-01   7.8399553708432257E-01   7.2677189735633430E-01
 6.9460558814381967E-01   6.9460559587013015E-01   7.2677191318909207E-01   7.8399556315243635E-01   8.6166073212023753E-01   9.5237289656560709E-01
 1.0475081570548692E+00   1.1382883482201303E+00   1.2160429310764480E+00   1.2733721931846962E+00   1.3056116128802184E+00   1.3056115933743659E+00
 1.2733721586694497E+00   1.2160428803387380E+00   1.1382882902578828E+00   1.0475080992314405E+00   9.4799109498900169E-01   8.4894174422687774E-01
 7.6414422099289026E-01   7.0167399452881241E-01   6.6655983123305584E-01   6.6655983966929999E-01   7.0167401181174571E-01   7.6414424947139570E-01
 8.4894178484089799E-01   9.4799114653545702E-01   1.0518751792483614E+00   1.1510140874291506E+00   1.2359264351909034E+00   1.2985376029588307E+00
 1.3337467441462616E+00   1.3337467228451894E+00   1.2985375652626854E+00   1.2359263797662554E+00   1.1510140241277462E+00   1.0518751161134205E+00
 9.4974583227542264E-01   8.5403962516567555E-01   7.7210377987121792E-01   7.1173730984437367E-01   6.7780452167099770E-01   6.7780452982369110E-01
 7.1173732654598554E-01   7.7210380738541495E-01   8.5403966441010981E-01   9.4974588208091415E-01   1.0501202801304665E+00   1.1459080773859882E+00
 1.2279497375813639E+00   1.2884434320643896E+00   1.3224620027205092E+00   1.3224619821380890E+00   1.2884433956424892E+00   1.2279496840345270E+00