 VARIABLES = X, Y, RHO, U, V, P, T, QX, QY, index1, index2
 ZONE  I =           21 , J =           21 DATAPACKING=BLOCK, VARLOCATION=([3-11]=CELLCENTERED)
 0.0000000000000000E+00   5.0000000000000003E-02   1.0000000000000001E-01   1.5000000000000002E-01   2.0000000000000001E-01   2.5000000000000000E-01
 3.0000000000000004E-01   3.5000000000000003E-01   4.0000000000000002E-01   4.5000000000000001E-01   5.0000000000000000E-01   5.5000000000000004E-01
 6.0000000000000009E-01   6.5000000000000002E-01   7.0000000000000007E-01   7.5000000000000000E-01   8.0000000000000004E-01   8.5000000000000009E-01
 9.0000000000000002E-01   9.5000000000000007E-01   1.0000000000000000E+00   0.0000000000000000E+00   5.0000000000000003E-02   1.0000000000000001E-01
 1.5000000000000002E-01   2.0000000000000001E-01   2.5000000000000000E-01   3.0000000000000004E-01   3.5000000000000003E-01   4.0000000000000002E-01
 4.5000000000000001E-01   5.0000000000000000E-01   5.5000000000000004E-01   6.0000000000000009E-01   6.5000000000000002E-01   7.0000000000000007E-01
 7.5000000000000000E-01   8.0000000000000004E-01   8.5000000000000009E-01   9.0000000000000002E-01   9.5000000000000007E-01   1.0000000000000000E+00
 0.0000000000000000E+00   5.0000000000000003E-02   1.0000000000000001E-01   1.5000000000000002E-01   2.0000000000000001E-01   2.5000000000000000E-01
 3.0000000000000004E-01   3.5000000000000003E-01   4.0000000000000002E-01   4.5000000000000001E-01   5.0000000000000000E-01   5.5000000000000004E-01
 6.0000000000000009E-01   6.5000000000000002E-01   7.0000000000000007E-01   7.5000000000000000E-01   8.0000000000000004E-01   8.5000000000000009E-01
 9.0000000000000002E-01   9.5000000000000007E-01   1.0000000000000000E+00   0.0000000000000000E+00   5.0000000000000003E-02   1.0000000000000001E-01
 1.5000000000000002E-01   2.0000000000000001E-01   2.5000000000000000E-01   3.0000000000000004E-01   3.5000000000000003E-01   4.0000000000000002E-01
 4.5000000000000001E-01   5.0000000000000000E-01   5.5000000000000004E-01   6.0000000000000009E-01   6.5000000000000002E-01   7.0000000000000007E-01
 7.5000000000000000E-01   8.0000000000000004E-01   8.5000000000000009E-01   9.0000000000000002E-01   9.5000000000000007E-01   1.0000000000000000E+00
 0.0000000000000000E+00   5.0000000000000003E-02   1.0000000000000001E-01   1.5000000000000002E-01   2.0000000000000001E-01   2.5000000000000000E-01
 3.0000000000000004E-01   3.5000000000000003E-01   4.0000000000000002E-01   4.5000000000000001E-01   5.0000000000000000E-01   5.5000000000000004E-01
 6.0000000000000009E-01   6.5000000000000002E-01   7.0000000000000007E-01   7.5000000000000000E-01   8.0000000000000004E-01   8.5000000000000009E-01
 9.0000000000000002E-01   9.5000000000000007E-01   1.0000000000000000E+00   0.0000000000000000E+00   5.0000000000000003E-02   1.0000000000000001E-01
 1.5000000000000002E-01   2.0000000000000001E-01   2.5000000000000000E-01   3.0000000000000004E-01   3.5000000000000003E-01   4.0000000000000002E-01
 4.5000000000000001E-01   5.0000000000000000E-01   5.5000000000000004E-01   6.0000000000000009E-01   6.5000000000000002E-01   7.0000000000000007E-01
 7.5000000000000000E-01   8.0000000000000004E-01   8.5000000000000009E-01   9.0000000000000002E-01   9.5000000000000007E-01   1.0000000000000000E+00
 0.0000000000000000E+00   5.0000000000000003E-02   1.0000000000000001E-01   1.5000000000000002E-01   2.0000000000000001E-01   2.5000000000000000E-01
 3.0000000000000004E-01   3.5000000000000003E-01   4.0000000000000002E-01   4.5000000000000001E-01   5.0000000000000000E-01   5.5000000000000004E-01
 6.0000000000000009E-01   6.5000000000000002E-01   7.0000000000000007E-01   7.5000000000000000E-01   8.0000000000000004E-01   8.5000000000000009E-01
 9.0000000000000002E-01   9.5000000000000007E-01   1.0000000000000000E+00   0.0000000000000000E+00   5.0000000000000003E-02   1.0000000000000001E-01
 1.5000000000000002E-01   2.0000000000000001E-01   2.5000000000000000E-01   3.0000000000000004E-01   3.5000000000000003E-01   4.0000000000000002E-01
 4.5000000000000001E-01   5.0000000000000000E-01   5.5000000000000004E-01   6.0000000000000009E-01   6.5000000000000002E-01   7.0000000000000007E-01
 7.5000000000000000E-01   8.0000000000000004E-01   8.5000000000000009E-01   9.0000000000000002E-01   9.5000000000000007E-01   1.0000000000000000E+00
 0.0000000000000000E+00   5.0000000000000003E-02   1.0000000000000001E-01   1.5000000000000002E-01   2.0000000000000001E-01   2.5000000000000000E-01
 3.0000000000000004E-01   3.5000000000000003E-01   4.0000000000000002E-01   4.5000000000000001E-01   5.0000000000000000E-01   5.5000000000000004E-01
 6.0000000000000009E-01   6.5000000000000002E-01   7.0000000000000007E-01   7.5000000000000000E-01   8.0000000000000004E-01   8.5000000000000009E-01
 9.0000000000000002E-01   9.5000000000000007E-01   1.0000000000000000E+00   0.0000000000000000E+00   5.0000000000000003E-02   1.0000000000000001E-01
 1.5000000000000002E-01   2.0000000000000001E-01   2.5000000000000000E-01   3.0000000000000004E-01   3.5000000000000003E-01   4.0000000000000002E-01
 4.5000000000000001E-01   5.0000000000000000E-01   5.5000000000000004E-01   6.0000000000000009E-01   6.5000000000000002E-01   7.0000000000000007E-01
 7.5000000000000000E-01   8.0000000000000004E-01   8.5000000000000009E-01   9.0000000000000002E-01   9.5000000000000007E-01   1.0000000000000000E+00
 0.0000000000000000E+00   5.0000000000000003E-02   1.0000000000000001E-01   1.5000000000000002E-01   2.0000000000000001E-01   2.5000000000000000E-01
 3.0000000000000004E-01   3.5000000000000003E-01   4.0000000000000002E-01   4.5000000000000001E-01   5.0000000000000000E-01   5.5000000000000004E-01
 6.0000000000000009E-01   6.5000000000000002E-01   7.0000000000000007E-01   7.5000000000000000E-01   8.0000000000000004E-01   8.5000000000000009E-01
 9.0000000000000002E-01   9.5000000000000007E-01   1.0000000000000000E+00   0.0000000000000000E+00   5.0000000000000003E-02   1.0000000000000001E-01
 1.5000000000000002E-01   2.0000000000000001E-01   2.5000000000000000E-01   3.0000000000000004E-01   3.5000000000000003E-01   4.0000000000000002E-01
 4.5000000000000001E-01   5.0000000000000000E-01   5.5000000000000004E-01   6.0000000000000009E-01   6.5000000000000002E-01   7.0000000000000007E-01
 7.5000000000000000E-01   8.0000000000000004E-01   8.5000000000000009E-01   9.0000000000000002E-01   9.5000000000000007E-01   1.0000000000000000E+00
 0.0000000000000000E+00   5.0000000000000003E-02   1.0000000000000001E-01   1.5000000000000002E-01   2.0000000000000001E-01   2.5000000000000000E-01
 3.0000000000000004E-01   3.5000000000000003E-01   4.0000000000000002E-01   4.5000000000000001E-01   5.0000000000000000E-01   5.5000000000000004E-01
 6.0000000000000009E-01   6.5000000000000002E-01   7.0000000000000007E-01   7.5000000000000000E-01   8.0000000000000004E-01   8.5000000000000009E-01
 9.0000000000000002E-01   9.5000000000000007E-01   1.0000000000000000E+00   0.0000000000000000E+00   5.0000000000000003E-02   1.0000000000000001E-01
 1.5000000000000002E-01   2.0000000000000001E-01   2.5000000000000000E-01   3.0000000000000004E-01   3.5000000000000003E-01   4.0000000000000002E-01
 4.5000000000000001E-01   5.0000000000000000E-01   5.5000000000000004E-01   6.0000000000000009E-01   6.5000000000000002E-01   7.0000000000000007E-01
 7.5000000000000000E-01   8.0000000000000004E-01   8.5000000000000009E-01   9.0000000000000002E-01   9.5000000000000007E-01   1.0000000000000000E+00
 0.0000000000000000E+00   5.0000000000000003E-02   1.0000000000000001E-01   1.5000000000000002E-01   2.0000000000000001E-01   2.5000000000000000E-01
 3.0000000000000004E-01   3.5000000000000003E-01   4.0000000000000002E-01   4.5000000000000001E-01   5.0000000000000000E-01   5.5000000000000004E-01
 6.0000000000000009E-01   6.5000000000000002E-01   7.0000000000000007E-01   7.5000000000000000E-01   8.0000000000000004E-01   8.5000000000000009E-01
 9.0000000000000002E-01   9.5000000000000007E-01   1.0000000000000000E+00   0.0000000000000000E+00   5.0000000000000003E-02   1.0000000000000001E-01
 1.5000000000000002E-01   2.0000000000000001E-01   2.5000000000000000E-01   3.0000000000000004E-01   3.5000000000000003E-01   4.0000000000000002E-01
 4.5000000000000001E-01   5.0000000000000000E-01   5.5000000000000004E-01   6.0000000000000009E-01   6.5000000000000002E-01   7.0000000000000007E-01
 7.5000000000000000E-01   8.0000000000000004E-01   8.5000000000000009E-01   9.0000000000000002E-01   9.5000000000000007E-01   1.0000000000000000E+00
 0.0000000000000000E+00   5.0000000000000003E-02   1.0000000000000001E-01   1.5000000000000002E-01   2.0000000000000001E-01   2.5000000000000000E-01
 3.0000000000000004E-01   3.5000000000000003E-01   4.0000000000000002E-01   4.5000000000000001E-01   5.0000000000000000E-01   5.5000000000000004E-01
 6.0000000000000009E-01   6.5000000000000002E-01   7.0000000000000007E-01   7.5000000000000000E-01   8.0000000000000004E-01   8.5000000000000009E-01
 9.0000000000000002E-01   9.5000000000000007E-01   1.0000000000000000E+00   0.0000000000000000E+00   5.0000000000000003E-02   1.0000000000000001E-01
 1.5000000000000002E-01   2.0000000000000001E-01   2.5000000000000000E-01   3.0000000000000004E-01   3.5000000000000003E-01   4.0000000000000002E-01
 4.5000000000000001E-01   5.0000000000000000E-01   5.5000000000000004E-01   6.0000000000000009E-01   6.5000000000000002E-01   7.0000000000000007E-01
 7.5000000000000000E-01   8.0000000000000004E-01   8.5000000000000009E-01   9.0000000000000002E-01   9.5000000000000007E-01   1.0000000000000000E+00
 0.0000000000000000E+00   5.0000000000000003E-02   1.0000000000000001E-01   1.5000000000000002E-01   2.0000000000000001E-01   2.5000000000000000E-01
 3.0000000000000004E-01   3.5000000000000003E-01   4.0000000000000002E-01   4.5000000000000001E-01   5.0000000000000000E-01   5.5000000000000004E-01
 6.0000000000000009E-01   6.5000000000000002E-01   7.0000000000000007E-01   7.5000000000000000E-01   8.0000000000000004E-01   8.5000000000000009E-01
 9.0000000000000002E-01   9.5000000000000007E-01   1.0000000000000000E+00   0.0000000000000000E+00   5.0000000000000003E-02   1.0000000000000001E-01
 1.5000000000000002E-01   2.0000000000000001E-01   2.5000000000000000E-01   3.0000000000000004E-01   3.5000000000000003E-01   4.0000000000000002E-01
 4.5000000000000001E-01   5.0000000000000000E-01   5.5000000000000004E-01   6.0000000000000009E-01   6.5000000000000002E-01   7.0000000000000007E-01
 7.5000000000000000E-01   8.0000000000000004E-01   8.5000000000000009E-01   9.0000000000000002E-01   9.5000000000000007E-01   1.0000000000000000E+00
 0.0000000000000000E+00   5.0000000000000003E-02   1.0000000000000001E-01   1.5000000000000002E-01   2.0000000000000001E-01   2.5000000000000000E-01
 3.0000000000000004E-01   3.5000000000000003E-01   4.0000000000000002E-01   4.5000000000000001E-01   5.0000000000000000E-01   5.5000000000000004E-01
 6.0000000000000009E-01   6.5000000000000002E-01   7.0000000000000007E-01   7.5000000000000000E-01   8.0000000000000004E-01   8.5000000000000009E-01
 9.0000000000000002E-01   9.5000000000000007E-01   1.0000000000000000E+00
 0.0000000000000000E+00   0.0000000000000000E+00   0.0000000000000000E+00   0.0000000000000000E+00   0.0000000000000000E+00   0.0000000000000000E+00
 0.0000000000000000E+00   0.0000000000000000E+00   0.0000000000000000E+00   0.0000000000000000E+00   0.0000000000000000E+00   0.0000000000000000E+00
 0.0000000000000000E+00   0.0000000000000000E+00   0.0000000000000000E+00   0.0000000000000000E+00   0.0000000000000000E+00   0.0000000000000000E+00
 0.0000000000000000E+00   0.0000000000000000E+00   0.0000000000000000E+00   5.0000000000000003E-02   5.0000000000000003E-02   5.0000000000000003E-02
 5.0000000000000003E-02   5.0000000000000003E-02   5.0000000000000003E-02   5.0000000000000003E-02   5.0000000000000003E-02   5.0000000000000003E-02
 5.0000000000000003E-02   5.0000000000000003E-02   5.0000000000000003E-02   5.0000000000000003E-02   5.0000000000000003E-02   5.0000000000000003E-02
 5.0000000000000003E-02   5.0000000000000003E-02   5.0000000000000003E-02   5.0000000000000003E-02   5.0000000000000003E-02   5.0000000000000003E-02
 1.0000000000000001E-01   1.0000000000000001E-01   1.0000000000000001E-01   1.0000000000000001E-01   1.0000000000000001E-01   1.0000000000000001E-01
 1.0000000000000001E-01   1.0000000000000001E-01   1.0000000000000001E-01   1.0000000000000001E-01   1.0000000000000001E-01   1.0000000000000001E-01
 1.0000000000000001E-01   1.0000000000000001E-01   1.0000000000000001E-01   1.0000000000000001E-01   1.0000000000000001E-01   1.0000000000000001E-01
 1.0000000000000001E-01   1.0000000000000001E-01   1.0000000000000001E-01   1.5000000000000002E-01   1.5000000000000002E-01   1.5000000000000002E-01
 1.5000000000000002E-01   1.5000000000000002E-01   1.5000000000000002E-01   1.5000000000000002E-01   1.5000000000000002E-01   1.5000000000000002E-01
 1.5000000000000002E-01   1.5000000000000002E-01   1.5000000000000002E-01   1.5000000000000002E-01   1.5000000000000002E-01   1.5000000000000002E-01
 1.5000000000000002E-01   1.5000000000000002E-01   1.5000000000000002E-01   1.5000000000000002E-01   1.5000000000000002E-01   1.5000000000000002E-01
 2.0000000000000001E-01   2.0000000000000001E-01   2.0000000000000001E-01   2.0000000000000001E-01   2.0000000000000001E-01   2.0000000000000001E-01
 2.0000000000000001E-01   2.0000000000000001E-01   2.0000000000000001E-01   2.0000000000000001E-01   2.0000000000000001E-01   2.0000000000000001E-01
 2.0000000000000001E-01   2.0000000000000001E-01   2.0000000000000001E-01   2.0000000000000001E-01   2.0000000000000001E-01   2.0000000000000001E-01
 2.0000000000000001E-01   2.0000000000000001E-01   2.0000000000000001E-01   2.5000000000000000E-01   2.5000000000000000E-01   2.5000000000000000E-01
 2.5000000000000000E-01   2.5000000000000000E-01   2.5000000000000000E-01   2.5000000000000000E-01   2.5000000000000000E-01   2.5000000000000000E-01
 2.5000000000000000E-01   2.5000000000000000E-01   2.5000000000000000E-01   2.5000000000000000E-01   2.5000000000000000E-01   2.5000000000000000E-01
 2.5000000000000000E-01   2.5000000000000000E-01   2.5000000000000000E-01   2.5000000000000000E-01   2.5000000000000000E-01   2.5000000000000000E-01
 3.0000000000000004E-01   3.0000000000000004E-01   3.0000000000000004E-01   3.0000000000000004E-01   3.0000000000000004E-01   3.0000000000000004E-01
 3.0000000000000004E-01   3.0000000000000004E-01   3.0000000000000004E-01   3.0000000000000004E-01   3.0000000000000004E-01   3.0000000000000004E-01
 3.0000000000000004E-01   3.0000000000000004E-01   3.0000000000000004E-01   3.0000000000000004E-01   3.0000000000000004E-01   3.0000000000000004E-01
 3.0000000000000004E-01   3.0000000000000004E-01   3.0000000000000004E-01   3.5000000000000003E-01   3.5000000000000003E-01   3.5000000000000003E-01
 3.5000000000000003E-01   3.5000000000000003E-01   3.5000000000000003E-01   3.5000000000000003E-01   3.5000000000000003E-01   3.5000000000000003E-01
 3.5000000000000003E-01   3.5000000000000003E-01   3.5000000000000003E-01   3.5000000000000003E-01   3.5000000000000003E-01   3.5000000000000003E-01
 3.5000000000000003E-01   3.5000000000000003E-01   3.5000000000000003E-01   3.5000000000000003E-01   3.5000000000000003E-01   3.5000000000000003E-01
 4.0000000000000002E-01   4.0000000000000002E-01   4.0000000000000002E-01   4.0000000000000002E-01   4.0000000000000002E-01   4.0000000000000002E-01
 4.0000000000000002E-01   4.0000000000000002E-01   4.0000000000000002E-01   4.0000000000000002E-01   4.0000000000000002E-01   4.0000000000000002E-01
 4.0000000000000002E-01   4.0000000000000002E-01   4.0000000000000002E-01   4.0000000000000002E-01   4.0000000000000002E-01   4.0000000000000002E-01
 4.0000000000000002E-01   4.0000000000000002E-01   4.0000000000000002E-01   4.5000000000000001E-01   4.5000000000000001E-01   4.5000000000000001E-01
 4.5000000000000001E-01   4.5000000000000001E-01   4.5000000000000001E-01   4.5000000000000001E-01   4.5000000000000001E-01   4.5000000000000001E-01
 4.5000000000000001E-01   4.5000000000000001E-01   4.5000000000000001E-01   4.5000000000000001E-01   4.5000000000000001E-01   4.5000000000000001E-01
 4.5000000000000001E-01   4.5000000000000001E-01   4.5000000000000001E-01   4.5000000000000001E-01   4.5000000000000001E-01   4.5000000000000001E-01
 5.0000000000000000E-01   5.0000000000000000E-01   5.0000000000000000E-01   5.0000000000000000E-01   5.0000000000000000E-01   5.0000000000000000E-01
 5.0000000000000000E-01   5.0000000000000000E-01   5.0000000000000000E-01   5.0000000000000000E-01   5.0000000000000000E-01   5.0000000000000000E-01
 5.0000000000000000E-01   5.0000000000000000E-01   5.0000000000000000E-01   5.0000000000000000E-01   5.0000000000000000E-01   5.0000000000000000E-01
 5.0000000000000000E-01   5.0000000000000000E-01   5.0000000000000000E-01   5.5000000000000004E-01   5.5000000000000004E-01   5.5000000000000004E-01
 5.5000000000000004E-01   5.5000000000000004E-01   5.5000000000000004E-01   5.5000000000000004E-01   5.5000000000000004E-01   5.5000000000000004E-01
 5.5000000000000004E-01   5.5000000000000004E-01   5.5000000000000004E-01   5.5000000000000004E-01   5.5000000000000004E-01   5.5000000000000004E-01
 5.5000000000000004E-01   5.5000000000000004E-01   5.5000000000000004E-01   5.5000000000000004E-01   5.5000000000000004E-01   5.5000000000000004E-01
 6.0000000000000009E-01   6.0000000000000009E-01   6.0000000000000009E-01   6.0000000000000009E-01   6.0000000000000009E-01   6.0000000000000009E-01
 6.0000000000000009E-01   6.0000000000000009E-01   6.0000000000000009E-01   6.0000000000000009E-01   6.0000000000000009E-01   6.0000000000000009E-01
 6.0000000000000009E-01   6.0000000000000009E-01   6.0000000000000009E-01   6.0000000000000009E-01   6.0000000000000009E-01   6.0000000000000009E-01
 6.0000000000000009E-01   6.0000000000000009E-01   6.0000000000000009E-01   6.5000000000000002E-01   6.5000000000000002E-01   6.5000000000000002E-01
 6.5000000000000002E-01   6.5000000000000002E-01   6.5000000000000002E-01   6.5000000000000002E-01   6.5000000000000002E-01   6.5000000000000002E-01
 6.5000000000000002E-01   6.5000000000000002E-01   6.5000000000000002E-01   6.5000000000000002E-01   6.5000000000000002E-01   6.5000000000000002E-01
 6.5000000000000002E-01   6.5000000000000002E-01   6.5000000000000002E-01   6.5000000000000002E-01   6.5000000000000002E-01   6.5000000000000002E-01
 7.0000000000000007E-01   7.0000000000000007E-01   7.0000000000000007E-01   7.0000000000000007E-01   7.0000000000000007E-01   7.0000000000000007E-01
 7.0000000000000007E-01   7.0000000000000007E-01   7.0000000000000007E-01   7.0000000000000007E-01   7.0000000000000007E-01   7.0000000000000007E-01
 7.0000000000000007E-01   7.0000000000000007E-01   7.0000000000000007E-01   7.0000000000000007E-01   7.0000000000000007E-01   7.0000000000000007E-01
 7.0000000000000007E-01   7.0000000000000007E-01   7.0000000000000007E-01   7.5000000000000000E-01   7.5000000000000000E-01   7.5000000000000000E-01
 7.5000000000000000E-01   7.5000000000000000E-01   7.5000000000000000E-01   7.5000000000000000E-01   7.5000000000000000E-01   7.5000000000000000E-01
 7.5000000000000000E-01   7.5000000000000000E-01   7.5000000000000000E-01   7.5000000000000000E-01   7.5000000000000000E-01   7.5000000000000000E-01
 7.5000000000000000E-01   7.5000000000000000E-01   7.5000000000000000E-01   7.5000000000000000E-01   7.5000000000000000E-01   7.5000000000000000E-01
 8.0000000000000004E-01   8.0000000000000004E-01   8.0000000000000004E-01   8.0000000000000004E-01   8.0000000000000004E-01   8.0000000000000004E-01
 8.0000000000000004E-01   8.0000000000000004E-01   8.0000000000000004E-01   8.0000000000000004E-01   8.0000000000000004E-01   8.0000000000000004E-01
 8.0000000000000004E-01   8.0000000000000004E-01   8.0000000000000004E-01   8.0000000000000004E-01   8.0000000000000004E-01   8.0000000000000004E-01
 8.0000000000000004E-01   8.0000000000000004E-01   8.0000000000000004E-01   8.5000000000000009E-01   8.5000000000000009E-01   8.5000000000000009E-01
 8.5000000000000009E-01   8.5000000000000009E-01   8.5000000000000009E-01   8.5000000000000009E-01   8.5000000000000009E-01   8.5000000000000009E-01
 8.5000000000000009E-01   8.5000000000000009E-01   8.5000000000000009E-01   8.5000000000000009E-01   8.5000000000000009E-01   8.5000000000000009E-01
 8.5000000000000009E-01   8.5000000000000009E-01   8.5000000000000009E-01   8.5000000000000009E-01   8.5000000000000009E-01   8.5000000000000009E-01
 9.0000000000000002E-01   9.0000000000000002E-01   9.0000000000000002E-01   9.0000000000000002E-01   9.0000000000000002E-01   9.0000000000000002E-01
 9.0000000000000002E-01   9.0000000000000002E-01   9.0000000000000002E-01   9.0000000000000002E-01   9.0000000000000002E-01   9.0000000000000002E-01
 9.0000000000000002E-01   9.0000000000000002E-01   9.0000000000000002E-01   9.0000000000000002E-01   9.0000000000000002E-01   9.0000000000000002E-01
 9.0000000000000002E-01   9.0000000000000002E-01   9.0000000000000002E-01   9.5000000000000007E-01   9.5000000000000007E-01   9.5000000000000007E-01
 9.5000000000000007E-01   9.5000000000000007E-01   9.5000000000000007E-01   9.5000000000000007E-01   9.5000000000000007E-01   9.5000000000000007E-01
 9.5000000000000007E-01   9.5000000000000007E-01   9.5000000000000007E-01   9.5000000000000007E-01   9.5000000000000007E-01   9.5000000000000007E-01
 9.5000000000000007E-01   9.5000000000000007E-01   9.5000000000000007E-01   9.5000000000000007E-01   9.5000000000000007E-01   9.5000000000000007E-01
 1.0000000000000000E+00   1.0000000000000000E+00   1.0000000000000000E+00   1.0000000000000000E+00   1.0000000000000000E+00   1.0000000000000000E+00
 1.0000000000000000E+00   1.0000000000000000E+00   1.0000000000000000E+00   1.0000000000000000E+00   1.0000000000000000E+00   1.0000000000000000E+00
 1.0000000000000000E+00   1.0000000000000000E+00   1.0000000000000000E+00   1.0000000000000000E+00   1.0000000000000000E+00   1.0000000000000000E+00
 1.0000000000000000E+00   1.0000000000000000E+00   1.0000000000000000E+00
 1.0117063600061620E+00   1.0343902764934323E+00   1.0537999365422972E+00   1.0682352105053525E+00   1.0762469884851387E+00   1.0762469856857848E+00
 1.0682352059261311E+00   1.0537999277604473E+00   1.0343902665042135E+00   1.0117063468457324E+00   9.8795437735277702E-01   9.6534221446601742E-01
 9.4599380673466893E-01   9.3170672405886557E-01   9.2371773072841812E-01   9.2371773631578313E-01   9.3170673343493005E-01   9.4599382107993280E-01
 9.6534222998237429E-01   9.8795439316829969E-01   1.0265070963939982E+00   1.0773152560318795E+00   1.1208808775862573E+00   1.1531425313764978E+00
 1.1710940724096752E+00   1.1710940678728203E+00   1.1531425207310435E+00   1.1208808613145445E+00   1.0773152336217371E+00   1.0265070683432407E+00
 9.7323791768268419E-01   9.2249032501943573E-01   8.7902250712880603E-01   8.4690365471117923E-01   8.2896402904772881E-01   8.2896404039046911E-01
 8.4690367496940377E-01   8.7902253684634646E-01   9.2249035810601654E-01   9.7323795128865243E-01   1.0387916228639491E+00   1.1130545106430170E+00
 1.1766577881669273E+00   1.2237790701587361E+00   1.2500281478580835E+00   1.2500281404895930E+00   1.2237790569360902E+00   1.1766577644874729E+00
 1.1130544788218451E+00   1.0387915829928400E+00   9.6103483440901760E-01   8.8688831081101238E-01   8.2338279123896829E-01   7.7645371398693208E-01
 7.5019720635408382E-01   7.5019722328632132E-01   7.7645374263903466E-01   8.2338283368914467E-01   8.8688835890886353E-01   9.6103488311224428E-01
 1.0474522037682625E+00   1.1380008731315607E+00   1.2155659488910280E+00   1.2729622231241995E+00   1.3049528572025932E+00   1.3049528499400229E+00
 1.2729622070489064E+00   1.2155659222127739E+00   1.1380008357539353E+00   1.0474521561858181E+00   9.5247026001221546E-01   8.6199899197509644E-01
 7.8452359648781311E-01   7.2736140012826234E-01   6.9532462264457484E-01   6.9532464254973236E-01   7.2736143510579554E-01   7.8452364768854344E-01
 8.6199905007230382E-01   9.5247031818810990E-01   1.0517947548045867E+00   1.1506731998116153E+00   1.2353657645317888E+00   1.2980615882502866E+00
 1.3329931522114034E+00   1.3329931435618130E+00   1.2980615707854031E+00   1.2353657340782427E+00   1.1506731571078541E+00   1.0517947023516860E+00
 9.4817668039088598E-01   8.4940363048934542E-01   7.6479726375344692E-01   7.0234320049209120E-01   6.6733822812165278E-01   6.6733824914806961E-01
 7.0234323748404859E-01   7.6479731932068329E-01   8.4940369318611375E-01   9.4817674339287428E-01   1.0500261091719605E+00   1.1455622686660074E+00
 1.2273915629455012E+00   1.2879648464857187E+00   1.3217124458236111E+00   1.3217124380558276E+00   1.2879648296135084E+00   1.2273915357384075E+00
 1.1455622294941670E+00   1.0500260600954845E+00   9.4989227536240983E-01   8.5445835823085670E-01   7.7271465234712311E-01   7.1237578554418046E-01
 6.7856567236238130E-01   6.7856569238351894E-01   7.1237582137339417E-01   7.7271470507049234E-01   8.5445841870283212E-01   9.4989233550271135E-01
 1.0436914126046715E+00   1.1271301704639656E+00   1.1986296224300221E+00   1.2515592292151303E+00   1.2810754816904164E+00   1.2810754744342985E+00
 1.2515592148336558E+00   1.1986295989660447E+00   1.1271301370844273E+00   1.0436913700406831E+00   9.5621723616957710E-01   8.7287809484109569E-01
 8.0150251499537817E-01   7.4882031326766796E-01   7.1929084876355498E-01   7.1929086596263581E-01   7.4882034493527250E-01   8.0150255993391384E-01
 8.7287814704362365E-01   9.5621728819622342E-01   1.0330550855061909E+00   1.0963256222492253E+00   1.1505000097514646E+00   1.1906281230303748E+00
 1.2129679789853809E+00   1.2129679738930552E+00   1.1906281132057543E+00   1.1504999932593989E+00   1.0963255972905341E+00   1.0330550532923028E+00
 9.6672384691676416E-01   9.0352828722185630E-01   8.4941909266137472E-01   8.0943635473869446E-01   7.8708195502886880E-01   7.8708196803190023E-01
 8.0943637793084622E-01   8.4941912648842488E-01   9.0352832641340530E-01   9.6672388630886763E-01   1.0193219259467756E+00   1.0564940758402925E+00
 1.0883999336323016E+00   1.1120194062473217E+00   1.1251652760649173E+00   1.1251652731157964E+00   1.1120194006281037E+00   1.0883999244621840E+00
 1.0564940615424048E+00   1.0193219087614807E+00   9.8037664794529011E-01   9.4327413089462642E-01   9.1147856497937974E-01   8.8799538986034343E-01
 8.7487754051902189E-01   8.7487754753463798E-01   8.8799540368613095E-01   9.1147858447846730E-01   9.4327415353398925E-01   9.8037666994310835E-01
 1.0038081577421132E+00   1.0114546203722745E+00   1.0179921827881315E+00   1.0229049930462384E+00   1.0255792009339146E+00   1.0255792008376856E+00
 1.0229049923752995E+00   1.0179921821622318E+00   1.0114546185844766E+00   1.0038081554182186E+00   9.9583199965674241E-01   9.8826237223192526E-01
 9.8178312997880102E-01   9.7702372579963537E-01   9.7434896921524650E-01   9.7434896966253981E-01   9.7702372785801994E-01   9.8178313293318697E-01
 9.8826237591201793E-01   9.9583200297292118E-01   9.8795431195414418E-01   9.6534186028802682E-01   9.4599192906732366E-01   9.3170402671760455E-01
 9.2371416365953574E-01   9.2371416614093116E-01   9.3170403122433565E-01   9.4599193730388276E-01   9.6534187053696963E-01   9.8795432513181025E-01
 1.0117064025701417E+00   1.0343906432853756E+00   1.0538017358523484E+00   1.0682379813600895E+00   1.0762505796879527E+00   1.0762505740457464E+00
 1.0682379719749595E+00   1.0538017213850779E+00   1.0343906281507231E+00   1.0117063868433627E+00   9.7323784444560157E-01   9.2249001634730976E-01
 8.7902088710481585E-01   8.4690115227948826E-01   8.2896087364293625E-01   8.2896087848087885E-01   8.4690116169073670E-01   8.7902090365128926E-01
 9.2249003830128040E-01   9.7323787191121824E-01   1.0265071293501657E+00   1.0773155904325247E+00   1.1208824097643366E+00   1.1531450970558541E+00
 1.1710972440258884E+00   1.1710972333397138E+00   1.1531450759746698E+00   1.1208823800604968E+00   1.0773155569518049E+00   1.0265070958437950E+00
 9.6103473109743676E-01   8.8688795940052489E-01   8.2338120628018852E-01   7.7645120022983150E-01   7.5019401877124348E-01   7.5019402608207719E-01
 7.7645121360975400E-01   8.2338122896902599E-01   8.8688799065741075E-01   9.6103477126471304E-01   1.0387916864499132E+00   1.1130548810443073E+00
 1.1766593072080940E+00   1.2237816742567229E+00   1.2500313809607744E+00   1.2500313636490110E+00   1.2237816451518115E+00   1.1766592636900901E+00
 1.1130548326197953E+00   1.0387916379950379E+00   9.5247019138678934E-01   8.6199869460091327E-01   7.8452222032876828E-01   7.2735913390100981E-01
 6.9532173156469679E-01   6.9532173969193700E-01   7.2735915043679966E-01   7.8452224716840069E-01   8.6199873249095105E-01   9.5247023886596005E-01
 1.0474522395732746E+00   1.1380011827981029E+00   1.2155672742747159E+00   1.2729645771461520E+00   1.3049557871129678E+00   1.3049557680160395E+00
 1.2729645423712037E+00   1.2155672229168601E+00   1.1380011252934454E+00   1.0474521820527902E+00   9.4817659317901781E-01   8.4940332589308387E-01
 7.6479600421728111E-01   7.0234115369041428E-01   6.6733561207221159E-01   6.6733562033885307E-01   7.0234117096010662E-01   7.6479603343541736E-01
 8.4940336676492401E-01   9.4817664485286468E-01   1.0517948130194590E+00   1.1506735240950503E+00   1.2353669867955661E+00   1.2980637190817068E+00
 1.3329958111809019E+00   1.3329957892978179E+00   1.2980636816170823E+00   1.2353669298880738E+00   1.1506734601021833E+00   1.0517947502522296E+00
 9.4989220665715679E-01   8.5445812122917586E-01   7.7271368831786169E-01   7.1237422345004087E-01   6.7856366243933730E-01   6.7856367013082042E-01
 7.1237423992573656E-01   7.7271371571239300E-01   8.5445816028192256E-01   9.4989225552427181E-01   1.0500261497604597E+00   1.1455625176326827E+00
 1.2273925052806440E+00   1.2879664827477990E+00   1.3217145014959539E+00   1.3217144808110848E+00   1.2879664468988856E+00   1.2273924529676701E+00