 VARIABLES = X, Y, RHO, U, V, P, T, QX, QY, index1, index2
 ZONE  I =           21 , J =           21 DATAPACKING=BLOCK, VARLOCATION=([3-11]=CELLCENTERED)
 0.0000000000000000E+00   5.0000000000000003E-02   1.0000000000000001E-01   1.5000000000000002E-01   2.0000000000000001E-01   2.5000000000000000E-01
 3.0000000000000004E-01   3.5000000000000003E-01   4.0000000000000002E-01   4.5000000000000001E-01   5.0000000000000000E-01   5.5000000000000004E-01
 6.0000000000000009E-01   6.5000000000000002E-01   7.0000000000000007E-01   7.5000000000000000E-01   8.0000000000000004E-01   8.5000000000000009E-01
 9.0000000000000002E-01   9.5000000000000007E-01   1.0000000000000000E+00   0.0000000000000000E+00   5.0000000000000003E-02   1.0000000000000001E-01
 1.5000000000000002E-01   2.0000000000000001E-01   2.5000000000000000E-01   3.0000000000000004E-01   3.5000000000000003E-01   4.0000000000000002E-01
 4.5000000000000001E-01   5.0000000000000000E-01   5.5000000000000004E-01   6.0000000000000009E-01   6.5000000000000002E-01   7.0000000000000007E-01
 7.5000000000000000E-01   8.0000000000000004E-01   8.5000000000000009E-01   9.0000000000000002E-01   9.5000000000000007E-01   1.0000000000000000E+00
 0.0000000000000000E+00   5.0000000000000003E-02   1.0000000000000001E-01   1.5000000000000002E-01   2.0000000000000001E-01   2.5000000000000000E-01
 3.0000000000000004E-01   3.5000000000000003E-01   4.0000000000000002E-01   4.5000000000000001E-01   5.0000000000000000E-01   5.5000000000000004E-01
 6.0000000000000009E-01   6.5000000000000002E-01   7.0000000000000007E-01   7.5000000000000000E-01   8.0000000000000004E-01   8.5000000000000009E-01
 9.0000000000000002E-01   9.5000000000000007E-01   1.0000000000000000E+00   0.0000000000000000E+00   5.0000000000000003E-02   1.0000000000000001E-01
 1.5000000000000002E-01   2.0000000000000001E-01   2.5000000000000000E-01   3.0000000000000004E-01   3.5000000000000003E-01   4.0000000000000002E-01
 4.5000000000000001E-01   5.0000000000000000E-01   5.5000000000000004E-01   6.0000000000000009E-01   6.5000000000000002E-01   7.0000000000000007E-01
 7.5000000000000000E-01   8.0000000000000004E-01   8.5000000000000009E-01   9.0000000000000002E-01   9.5000000000000007E-01   1.0000000000000000E+00
 0.0000000000000000E+00   5.0000000000000003E-02   1.0000000000000001E-01   1.5000000000000002E-01   2.0000000000000001E-01   2.5000000000000000E-01
 3.0000000000000004E-01   3.5000000000000003E-01   4.0000000000000002E-01   4.5000000000000001E-01   5.0000000000000000E-01   5.5000000000000004E-01
 6.0000000000000009E-01   6.5000000000000002E-01   7.0000000000000007E-01   7.5000000000000000E-01   8.0000000000000004E-01   8.5000000000000009E-01
 9.0000000000000002E-01   9.5000000000000007E-01   1.0000000000000000E+00   0.0000000000000000E+00   5.0000000000000003E-02   1.0000000000000001E-01
 1.5000000000000002E-01   2.0000000000000001E-01   2.5000000000000000E-01   3.0000000000000004E-01   3.5000000000000003E-01   4.0000000000000002E-01
 4.5000000000000001E-01   5.0000000000000000E-01   5.5000000000000004E-01   6.0000000000000009E-01   6.5000000000000002E-01   7.0000000000000007E-01
 7.5000000000000000E-01   8.0000000000000004E-01   8.5000000000000009E-01   9.0000000000000002E-01   9.5000000000000007E-01   1.0000000000000000E+00
 0.0000000000000000E+00   5.0000000000000003E-02   1.0000000000000001E-01   1.5000000000000002E-01   2.0000000000000001E-01   2.5000000000000000E-01
 3.0000000000000004E-01   3.5000000000000003E-01   4.0000000000000002E-01   4.5000000000000001E-01   5.0000000000000000E-01   5.5000000000000004E-01
 6.0000000000000009E-01   6.5000000000000002E-01   7.0000000000000007E-01   7.5000000000000000E-01   8.0000000000000004E-01   8.5000000000000009E-01
 9.0000000000000002E-01   9.5000000000000007E-01   1.0000000000000000E+00   0.0000000000000000E+00   5.0000000000000003E-02   1.0000000000000001E-01
 1.5000000000000002E-01   2.0000000000000001E-01   2.5000000000000000E-01   3.0000000000000004E-01   3.5000000000000003E-01   4.0000000000000002E-01
 4.5000000000000001E-01   5.0000000000000000E-01   5.5000000000000004E-01   6.0000000000000009E-01   6.5000000000000002E-01   7.0000000000000007E-01
 7.5000000000000000E-01   8.0000000000000004E-01   8.5000000000000009E-01   9.0000000000000002E-01   9.5000000000000007E-01   1.0000000000000000E+00
 0.0000000000000000E+00   5.0000000000000003E-02   1.0000000000000001E-01   1.5000000000000002E-01   2.0000000000000001E-01   2.5000000000000000E-01
 3.0000000000000004E-01   3.5000000000000003E-01   4.0000000000000002E-01   4.5000000000000001E-01   5.0000000000000000E-01   5.5000000000000004E-01
 6.0000000000000009E-01   6.5000000000000002E-01   7.0000000000000007E-01   7.5000000000000000E-01   8.0000000000000004E-01   8.5000000000000009E-01
 9.0000000000000002E-01   9.5000000000000007E-01   1.0000000000000000E+00   0.0000000000000000E+00   5.0000000000000003E-02   1.0000000000000001E-01
 1.5000000000000002E-01   2.0000000000000001E-01   2.5000000000000000E-01   3.0000000000000004E-01   3.5000000000000003E-01   4.0000000000000002E-01
 4.5000000000000001E-01   5.0000000000000000E-01   5.5000000000000004E-01   6.0000000000000009E-01   6.5000000000000002E-01   7.0000000000000007E-01
 7.5000000000000000E-01   8.0000000000000004E-01   8.5000000000000009E-01   9.0000000000000002E-01   9.5000000000000007E-01   1.0000000000000000E+00
 0.0000000000000000E+00   5.0000000000000003E-02   1.0000000000000001E-01   1.5000000000000002E-01   2.0000000000000001E-01   2.5000000000000000E-01
 3.0000000000000004E-01   3.5000000000000003E-01   4.0000000000000002E-01   4.5000000000000001E-01   5.0000000000000000E-01   5.5000000000000004E-01
 6.0000000000000009E-01   6.5000000000000002E-01   7.0000000000000007E-01   7.5000000000000000E-01   8.0000000000000004E-01   8.5000000000000009E-01
 9.0000000000000002E-01   9.5000000000000007E-01   1.0000000000000000E+00   0.0000000000000000E+00   5.0000000000000003E-02   1.0000000000000001E-01
 1.5000000000000002E-01   2.0000000000000001E-01   2.5000000000000000E-01   3.0000000000000004E-01   3.5000000000000003E-01   4.0000000000000002E-01
 4.5000000000000001E-01   5.0000000000000000E-01   5.5000000000000004E-01   6.0000000000000009E-01   6.5000000000000002E-01   7.0000000000000007E-01
 7.5000000000000000E-01   8.0000000000000004E-01   8.5000000000000009E-01   9.0000000000000002E-01   9.5000000000000007E-01   1.0000000000000000E+00
 0.0000000000000000E+00   5.0000000000000003E-02   1.0000000000000001E-01   1.5000000000000002E-01   2.0000000000000001E-01   2.5000000000000000E-01
 3.0000000000000004E-01   3.5000000000000003E-01   4.0000000000000002E-01   4.5000000000000001E-01   5.0000000000000000E-01   5.5000000000000004E-01
 6.0000000000000009E-01   6.5000000000000002E-01   7.0000000000000007E-01   7.5000000000000000E-01   8.0000000000000004E-01   8.5000000000000009E-01
 9.0000000000000002E-01   9.5000000000000007E-01   1.0000000000000000E+00   0.0000000000000000E+00   5.0000000000000003E-02   1.0000000000000001E-01
 1.5000000000000002E-01   2.0000000000000001E-01   2.5000000000000000E-01   3.0000000000000004E-01   3.5000000000000003E-01   4.0000000000000002E-01
 4.5000000000000001E-01   5.0000000000000000E-01   5.5000000000000004E-01   6.0000000000000009E-01   6.5000000000000002E-01   7.0000000000000007E-01
 7.5000000000000000E-01   8.0000000000000004E-01   8.5000000000000009E-01   9.0000000000000002E-01   9.5000000000000007E-01   1.0000000000000000E+00
 0.0000000000000000E+00   5.0000000000000003E-02   1.0000000000000001E-01   1.5000000000000002E-01   2.0000000000000001E-01   2.5000000000000000E-01
 3.0000000000000004E-01   3.5000000000000003E-01   4.0000000000000002E-01   4.5000000000000001E-01   5.0000000000000000E-01   5.5000000000000004E-01
 6.0000000000000009E-01   6.5000000000000002E-01   7.0000000000000007E-01   7.5000000000000000E-01   8.0000000000000004E-01   8.5000000000000009E-01
 9.0000000000000002E-01   9.5000000000000007E-01   1.0000000000000000E+00   0.0000000000000000E+00   5.0000000000000003E-02   1.0000000000000001E-01
 1.5000000000000002E-01   2.0000000000000001E-01   2.5000000000000000E-01   3.0000000000000004E-01   3.5000000000000003E-01   4.0000000000000002E-01
 4.5000000000000001E-01   5.0000000000000000E-01   5.5000000000000004E-01   6.0000000000000009E-01   6.5000000000000002E-01   7.0000000000000007E-01
 7.5000000000000000E-01   8.0000000000000004E-01   8.5000000000000009E-01   9.0000000000000002E-01   9.5000000000000007E-01   1.0000000000000000E+00
 0.0000000000000000E+00   5.0000000000000003E-02   1.0000000000000001E-01   1.5000000000000002E-01   2.0000000000000001E-01   2.5000000000000000E-01
 3.0000000000000004E-01   3.5000000000000003E-01   4.0000000000000002E-01   4.5000000000000001E-01   5.0000000000000000E-01   5.5000000000000004E-01
 6.0000000000000009E-01   6.5000000000000002E-01   7.0000000000000007E-01   7.5000000000000000E-01   8.0000000000000004E-01   8.5000000000000009E-01
 9.0000000000000002E-01   9.5000000000000007E-01   1.0000000000000000E+00   0.0000000000000000E+00   5.0000000000000003E-02   1.0000000000000001E-01
 1.5000000000000002E-01   2.0000000000000001E-01   2.5000000000000000E-01   3.0000000000000004E-01   3.5000000000000003E-01   4.0000000000000002E-01
 4.5000000000000001E-01   5.0000000000000000E-01   5.5000000000000004E-01   6.0000000000000009E-01   6.5000000000000002E-01   7.0000000000000007E-01
 7.5000000000000000E-01   8.0000000000000004E-01   8.5000000000000009E-01   9.0000000000000002E-01   9.5000000000000007E-01   1.0000000000000000E+00
 0.0000000000000000E+00   5.0000000000000003E-02   1.0000000000000001E-01   1.5000000000000002E-01   2.0000000000000001E-01   2.5000000000000000E-01
 3.0000000000000004E-01   3.5000000000000003E-01   4.0000000000000002E-01   4.5000000000000001E-01   5.0000000000000000E-01   5.5000000000000004E-01
 6.0000000000000009E-01   6.5000000000000002E-01   7.0000000000000007E-01   7.5000000000000000E-01   8.0000000000000004E-01   8.5000000000000009E-01
 9.0000000000000002E-01   9.5000000000000007E-01   1.0000000000000000E+00   0.0000000000000000E+00   5.0000000000000003E-02   1.0000000000000001E-01
 1.5000000000000002E-01   2.0000000000000001E-01   2.5000000000000000E-01   3.0000000000000004E-01   3.5000000000000003E-01   4.0000000000000002E-01
 4.5000000000000001E-01   5.0000000000000000E-01   5.5000000000000004E-01   6.0000000000000009E-01   6.5000000000000002E-01   7.0000000000000007E-01
 7.5000000000000000E-01   8.0000000000000004E-01   8.5000000000000009E-01   9.0000000000000002E-01   9.5000000000000007E-01   1.0000000000000000E+00
 0.0000000000000000E+00   5.0000000000000003E-02   1.0000000000000001E-01   1.5000000000000002E-01   2.0000000000000001E-01   2.5000000000000000E-01
 3.0000000000000004E-01   3.5000000000000003E-01   4.0000000000000002E-01   4.5000000000000001E-01   5.0000000000000000E-01   5.5000000000000004E-01
 6.0000000000000009E-01   6.5000000000000002E-01   7.0000000000000007E-01   7.5000000000000000E-01   8.0000000000000004E-01   8.5000000000000009E-01
 9.0000000000000002E-01   9.5000000000000007E-01   1.0000000000000000E+00
 0.0000000000000000E+00   0.0000000000000000E+00   0.0000000000000000E+00   0.0000000000000000E+00   0.0000000000000000E+00   0.0000000000000000E+00
 0.0000000000000000E+00   0.0000000000000000E+00   0.0000000000000000E+00   0.0000000000000000E+00   0.0000000000000000E+00   0.0000000000000000E+00
 0.0000000000000000E+00   0.0000000000000000E+00   0.0000000000000000E+00   0.0000000000000000E+00   0.0000000000000000E+00   0.0000000000000000E+00
 0.0000000000000000E+00   0.0000000000000000E+00   0.0000000000000000E+00   5.0000000000000003E-02   5.0000000000000003E-02   5.0000000000000003E-02
 5.0000000000000003E-02   5.0000000000000003E-02   5.0000000000000003E-02   5.0000000000000003E-02   5.0000000000000003E-02   5.0000000000000003E-02
 5.0000000000000003E-02   5.0000000000000003E-02   5.0000000000000003E-02   5.0000000000000003E-02   5.0000000000000003E-02   5.0000000000000003E-02
 5.0000000000000003E-02   5.0000000000000003E-02   5.0000000000000003E-02   5.0000000000000003E-02   5.0000000000000003E-02   5.0000000000000003E-02
 1.0000000000000001E-01   1.0000000000000001E-01   1.0000000000000001E-01   1.0000000000000001E-01   1.0000000000000001E-01   1.0000000000000001E-01
 1.0000000000000001E-01   1.0000000000000001E-01   1.0000000000000001E-01   1.0000000000000001E-01   1.0000000000000001E-01   1.0000000000000001E-01
 1.0000000000000001E-01   1.0000000000000001E-01   1.0000000000000001E-01   1.0000000000000001E-01   1.0000000000000001E-01   1.0000000000000001E-01
 1.0000000000000001E-01   1.0000000000000001E-01   1.0000000000000001E-01   1.5000000000000002E-01   1.5000000000000002E-01   1.5000000000000002E-01
 1.5000000000000002E-01   1.5000000000000002E-01   1.5000000000000002E-01   1.5000000000000002E-01   1.5000000000000002E-01   1.5000000000000002E-01
 1.5000000000000002E-01   1.5000000000000002E-01   1.5000000000000002E-01   1.5000000000000002E-01   1.5000000000000002E-01   1.5000000000000002E-01
 1.5000000000000002E-01   1.5000000000000002E-01   1.5000000000000002E-01   1.5000000000000002E-01   1.5000000000000002E-01   1.5000000000000002E-01
 2.0000000000000001E-01   2.0000000000000001E-01   2.0000000000000001E-01   2.0000000000000001E-01   2.0000000000000001E-01   2.0000000000000001E-01
 2.0000000000000001E-01   2.0000000000000001E-01   2.0000000000000001E-01   2.0000000000000001E-01   2.0000000000000001E-01   2.0000000000000001E-01
 2.0000000000000001E-01   2.0000000000000001E-01   2.0000000000000001E-01   2.0000000000000001E-01   2.0000000000000001E-01   2.0000000000000001E-01
 2.0000000000000001E-01   2.0000000000000001E-01   2.0000000000000001E-01   2.5000000000000000E-01   2.5000000000000000E-01   2.5000000000000000E-01
 2.5000000000000000E-01   2.5000000000000000E-01   2.5000000000000000E-01   2.5000000000000000E-01   2.5000000000000000E-01   2.5000000000000000E-01
 2.5000000000000000E-01   2.5000000000000000E-01   2.5000000000000000E-01   2.5000000000000000E-01   2.5000000000000000E-01   2.5000000000000000E-01
 2.5000000000000000E-01   2.5000000000000000E-01   2.5000000000000000E-01   2.5000000000000000E-01   2.5000000000000000E-01   2.5000000000000000E-01
 3.0000000000000004E-01   3.0000000000000004E-01   3.0000000000000004E-01   3.0000000000000004E-01   3.0000000000000004E-01   3.0000000000000004E-01
 3.0000000000000004E-01   3.0000000000000004E-01   3.0000000000000004E-01   3.0000000000000004E-01   3.0000000000000004E-01   3.0000000000000004E-01
 3.0000000000000004E-01   3.0000000000000004E-01   3.0000000000000004E-01   3.0000000000000004E-01   3.0000000000000004E-01   3.0000000000000004E-01
 3.0000000000000004E-01   3.0000000000000004E-01   3.0000000000000004E-01   3.5000000000000003E-01   3.5000000000000003E-01   3.5000000000000003E-01
 3.5000000000000003E-01   3.5000000000000003E-01   3.5000000000000003E-01   3.5000000000000003E-01   3.5000000000000003E-01   3.5000000000000003E-01
 3.5000000000000003E-01   3.5000000000000003E-01   3.5000000000000003E-01   3.5000000000000003E-01   3.5000000000000003E-01   3.5000000000000003E-01
 3.5000000000000003E-01   3.5000000000000003E-01   3.5000000000000003E-01   3.5000000000000003E-01   3.5000000000000003E-01   3.5000000000000003E-01
 4.0000000000000002E-01   4.0000000000000002E-01   4.0000000000000002E-01   4.0000000000000002E-01   4.0000000000000002E-01   4.0000000000000002E-01
 4.0000000000000002E-01   4.0000000000000002E-01   4.0000000000000002E-01   4.0000000000000002E-01   4.0000000000000002E-01   4.0000000000000002E-01
 4.0000000000000002E-01   4.0000000000000002E-01   4.0000000000000002E-01   4.0000000000000002E-01   4.0000000000000002E-01   4.0000000000000002E-01
 4.0000000000000002E-01   4.0000000000000002E-01   4.0000000000000002E-01   4.5000000000000001E-01   4.5000000000000001E-01   4.5000000000000001E-01
 4.5000000000000001E-01   4.5000000000000001E-01   4.5000000000000001E-01   4.5000000000000001E-01   4.5000000000000001E-01   4.5000000000000001E-01
 4.5000000000000001E-01   4.5000000000000001E-01   4.5000000000000001E-01   4.5000000000000001E-01   4.5000000000000001E-01   4.5000000000000001E-01
 4.5000000000000001E-01   4.5000000000000001E-01   4.5000000000000001E-01   4.5000000000000001E-01   4.5000000000000001E-01   4.5000000000000001E-01
 5.0000000000000000E-01   5.0000000000000000E-01   5.0000000000000000E-01   5.0000000000000000E-01   5.0000000000000000E-01   5.0000000000000000E-01
 5.0000000000000000E-01   5.0000000000000000E-01   5.0000000000000000E-01   5.0000000000000000E-01   5.0000000000000000E-01   5.0000000000000000E-01
 5.0000000000000000E-01   5.0000000000000000E-01   5.0000000000000000E-01   5.0000000000000000E-01   5.0000000000000000E-01   5.0000000000000000E-01
 5.0000000000000000E-01   5.0000000000000000E-01   5.0000000000000000E-01   5.5000000000000004E-01   5.5000000000000004E-01   5.5000000000000004E-01
 5.5000000000000004E-01   5.5000000000000004E-01   5.5000000000000004E-01   5.5000000000000004E-01   5.5000000000000004E-01   5.5000000000000004E-01
 5.5000000000000004E-01   5.5000000000000004E-01   5.5000000000000004E-01   5.5000000000000004E-01   5.5000000000000004E-01   5.5000000000000004E-01
 5.5000000000000004E-01   5.5000000000000004E-01   5.5000000000000004E-01   5.5000000000000004E-01   5.5000000000000004E-01   5.5000000000000004E-01
 6.0000000000000009E-01   6.0000000000000009E-01   6.0000000000000009E-01   6.0000000000000009E-01   6.0000000000000009E-01   6.0000000000000009E-01
 6.0000000000000009E-01   6.0000000000000009E-01   6.0000000000000009E-01   6.0000000000000009E-01   6.0000000000000009E-01   6.0000000000000009E-01
 6.0000000000000009E-01   6.0000000000000009E-01   6.0000000000000009E-01   6.0000000000000009E-01   6.0000000000000009E-01   6.0000000000000009E-01
 6.0000000000000009E-01   6.0000000000000009E-01   6.0000000000000009E-01   6.5000000000000002E-01   6.5000000000000002E-01   6.5000000000000002E-01
 6.5000000000000002E-01   6.5000000000000002E-01   6.5000000000000002E-01   6.5000000000000002E-01   6.5000000000000002E-01   6.5000000000000002E-01
 6.5000000000000002E-01   6.5000000000000002E-01   6.5000000000000002E-01   6.5000000000000002E-01   6.5000000000000002E-01   6.5000000000000002E-01
 6.5000000000000002E-01   6.5000000000000002E-01   6.5000000000000002E-01   6.5000000000000002E-01   6.5000000000000002E-01   6.5000000000000002E-01
 7.0000000000000007E-01   7.0000000000000007E-01   7.0000000000000007E-01   7.0000000000000007E-01   7.0000000000000007E-01   7.0000000000000007E-01
 7.0000000000000007E-01   7.0000000000000007E-01   7.0000000000000007E-01   7.0000000000000007E-01   7.0000000000000007E-01   7.0000000000000007E-01
 7.0000000000000007E-01   7.0000000000000007E-01   7.0000000000000007E-01   7.0000000000000007E-01   7.0000000000000007E-01   7.0000000000000007E-01
 7.0000000000000007E-01   7.0000000000000007E-01   7.0000000000000007E-01   7.5000000000000000E-01   7.5000000000000000E-01   7.5000000000000000E-01
 7.5000000000000000E-01   7.5000000000000000E-01   7.5000000000000000E-01   7.5000000000000000E-01   7.5000000000000000E-01   7.5000000000000000E-01
 7.5000000000000000E-01   7.5000000000000000E-01   7.5000000000000000E-01   7.5000000000000000E-01   7.5000000000000000E-01   7.5000000000000000E-01
 7.5000000000000000E-01   7.5000000000000000E-01   7.5000000000000000E-01   7.5000000000000000E-01   7.5000000000000000E-01   7.5000000000000000E-01
 8.0000000000000004E-01   8.0000000000000004E-01   8.0000000000000004E-01   8.0000000000000004E-01   8.0000000000000004E-01   8.0000000000000004E-01
 8.0000000000000004E-01   8.0000000000000004E-01   8.0000000000000004E-01   8.0000000000000004E-01   8.0000000000000004E-01   8.0000000000000004E-01
 8.0000000000000004E-01   8.0000000000000004E-01   8.0000000000000004E-01   8.0000000000000004E-01   8.0000000000000004E-01   8.0000000000000004E-01
 8.0000000000000004E-01   8.0000000000000004E-01   8.0000000000000004E-01   8.5000000000000009E-01   8.5000000000000009E-01   8.5000000000000009E-01
 8.5000000000000009E-01   8.5000000000000009E-01   8.5000000000000009E-01   8.5000000000000009E-01   8.5000000000000009E-01   8.5000000000000009E-01
 8.5000000000000009E-01   8.5000000000000009E-01   8.5000000000000009E-01   8.5000000000000009E-01   8.5000000000000009E-01   8.5000000000000009E-01
 8.5000000000000009E-01   8.5000000000000009E-01   8.5000000000000009E-01   8.5000000000000009E-01   8.5000000000000009E-01   8.5000000000000009E-01
 9.0000000000000002E-01   9.0000000000000002E-01   9.0000000000000002E-01   9.0000000000000002E-01   9.0000000000000002E-01   9.0000000000000002E-01
 9.0000000000000002E-01   9.0000000000000002E-01   9.0000000000000002E-01   9.0000000000000002E-01   9.0000000000000002E-01   9.0000000000000002E-01
 9.0000000000000002E-01   9.0000000000000002E-01   9.0000000000000002E-01   9.0000000000000002E-01   9.0000000000000002E-01   9.0000000000000002E-01
 9.0000000000000002E-01   9.0000000000000002E-01   9.0000000000000002E-01   9.5000000000000007E-01   9.5000000000000007E-01   9.5000000000000007E-01
 9.5000000000000007E-01   9.5000000000000007E-01   9.5000000000000007E-01   9.5000000000000007E-01   9.5000000000000007E-01   9.5000000000000007E-01
 9.5000000000000007E-01   9.5000000000000007E-01   9.5000000000000007E-01   9.5000000000000007E-01   9.5000000000000007E-01   9.5000000000000007E-01
 9.5000000000000007E-01   9.5000000000000007E-01   9.5000000000000007E-01   9.5000000000000007E-01   9.5000000000000007E-01   9.5000000000000007E-01
 1.0000000000000000E+00   1.0000000000000000E+00   1.0000000000000000E+00   1.0000000000000000E+00   1.0000000000000000E+00   1.0000000000000000E+00
 1.0000000000000000E+00   1.0000000000000000E+00   1.0000000000000000E+00   1.0000000000000000E+00   1.0000000000000000E+00   1.0000000000000000E+00
 1.0000000000000000E+00   1.0000000000000000E+00   1.0000000000000000E+00   1.0000000000000000E+00   1.0000000000000000E+00   1.0000000000000000E+00
 1.0000000000000000E+00   1.0000000000000000E+00   1.0000000000000000E+00
 1.0114185636818176E+00   1.0329251570852656E+00   1.0512235692357106E+00   1.0645386356217970E+00   1.0724594400517673E+00   1.0724594381175716E+00
 1.0645386318560908E+00   1.0512235624783610E+00   1.0329251474234855E+00   1.0114185516953627E+00   9.8832186723813564E-01   9.6556938855461683E-01
 9.4608155514364745E-01   9.3154361033853161E-01   9.2247552481557060E-01   9.2247553145314032E-01   9.3154361857455681E-01   9.4608156736796134E-01
 9.6556940258738977E-01   9.8832188132496523E-01   1.0250796410974954E+00   1.0746344578985032E+00   1.1172536410470411E+00   1.1488262399344031E+00
 1.1665476223329614E+00   1.1665476182890684E+00   1.1488262310398873E+00   1.1172536254624466E+00   1.0746344357856579E+00   1.0250796140628804E+00
 9.7312443638220869E-01   9.2396601093626340E-01   8.8142952732950963E-01   8.5001505440564151E-01   8.3186296766524592E-01   8.3186297865510628E-01
 8.5001507237507745E-01   8.8142955394066669E-01   9.2396604099022073E-01   9.7312446805798625E-01   1.0362195725379644E+00   1.1092567445539174E+00
 1.1724826752843498E+00   1.2197611802074531E+00   1.2459319303477521E+00   1.2459319245447427E+00   1.2197611671414985E+00   1.1724826521332172E+00
 1.1092567116525669E+00   1.0362195329451667E+00   9.6036720209915827E-01   8.8881128468382253E-01   8.2792694293958924E-01   7.8311930970954313E-01
 7.5835296441650846E-01   7.5835297829424986E-01   7.8311933512502130E-01   8.2792698052738189E-01   8.8881132846868405E-01   9.6036724708182719E-01
 1.0438503200176796E+00   1.1337407791749579E+00   1.2112455649360596E+00   1.2693152189080070E+00   1.3009192262247031E+00   1.3009192193527002E+00
 1.2693152031895776E+00   1.2112455365639347E+00   1.1337407390849055E+00   1.0438502711010611E+00   9.5145888122913957E-01   8.6426405612954360E-01
 7.9066872916573427E-01   7.3701603950338179E-01   7.0826815166157031E-01   7.0826816735560449E-01   7.3701606933037012E-01   7.9066877403827229E-01
 8.6426410917010565E-01   9.5145893618675625E-01   1.0483748192500979E+00   1.1462558963655156E+00   1.2308845417908623E+00   1.2942107542019841E+00
 1.3287299632294713E+00   1.3287299557684722E+00   1.2942107372018319E+00   1.2308845108064108E+00   1.1462558527656852E+00   1.0483747666622276E+00
 9.4580894098879498E-01   8.5100085269159220E-01   7.7172826835367292E-01   7.1442896501026987E-01   6.8384033884582673E-01   6.8384035556314116E-01
 7.1442899643522939E-01   7.7172831656918828E-01   8.5100091038131964E-01   9.4580900165007864E-01   1.0463314517920548E+00   1.1411258210675934E+00
 1.2229954651835384E+00   1.2843401173970124E+00   1.3177545756670697E+00   1.3177545684262744E+00   1.2843401008854192E+00   1.2229954351971830E+00
 1.1411257788529516E+00   1.0463314005156912E+00   9.4848222774410484E-01   8.5653123971441170E-01   7.7935741861287244E-01   7.2344262512317092E-01
 6.9360316037944381E-01   6.9360317665468185E-01   7.2344265587357715E-01   7.7935746547335227E-01   8.5653129555394925E-01   9.4848228617824137E-01
 1.0405096138469145E+00   1.1230348086170536E+00   1.1944169972264562E+00   1.2479929078833096E+00   1.2773887684959608E+00   1.2773887620701367E+00
 1.2479928932427782E+00   1.1944169711024659E+00   1.1230347715876019E+00   1.0405095689777768E+00   9.5529366331249654E-01   8.7499692036387322E-01
 8.0693283477933464E-01   7.5695415455553039E-01   7.2978458847895444E-01   7.2978460337763063E-01   7.5695418267811299E-01   8.0693287653664492E-01
 8.7499696949396699E-01   9.5529371381459915E-01   1.0310892280604014E+00   1.0930895024757536E+00   1.1465616609233309E+00   1.1862783740774312E+00
 1.2083050185368542E+00   1.2083050136504192E+00   1.1862783630201046E+00   1.1465616413568456E+00   1.0930894746776059E+00   1.0310891943511780E+00
 9.6631304048050948E-01   9.0532611028622589E-01   8.5300139428538269E-01   8.1433012545055605E-01   7.9258064157113040E-01   7.9258065372578246E-01
 8.1433014757607747E-01   8.5300142675518453E-01   9.0532614759909691E-01   9.6631307922570553E-01   1.0184802130699009E+00   1.0544405228952887E+00
 1.0851196279777644E+00   1.1079139672246521E+00   1.1210652576870266E+00   1.1210652547968392E+00   1.1079139607888600E+00   1.0851196166602015E+00
 1.0544405068901266E+00   1.0184801933019094E+00   9.8054874885235010E-01   9.4416565576326206E-01   9.1275053014694374E-01   8.8936441658057130E-01
 8.7548003093357596E-01   8.7548003892109749E-01   8.8936443026850898E-01   9.1275054979398429E-01   9.4416567814493091E-01   9.8054877192130629E-01
 1.0038483431870677E+00   1.0106266076589041E+00   1.0161314293628851E+00   1.0199420678942344E+00   1.0223355088819592E+00   1.0223355081730712E+00
 1.0199420668140229E+00   1.0161314273367239E+00   1.0106266045524441E+00   1.0038483390448514E+00   9.9609534195795835E-01   9.8808462262210006E-01
 9.8083657086140774E-01   9.7528457097920018E-01   9.7175877415002321E-01   9.7175877705949043E-01   9.7528457414470549E-01   9.8083657543330560E-01
 9.8808462768140659E-01   9.9609534689315504E-01   9.8832233939314307E-01   9.6556908540834396E-01   9.4608006438201242E-01   9.3154031603119325E-01
 9.2247017741129667E-01   9.2247017988171420E-01   9.3154032011900967E-01   9.4608007159904006E-01   9.6556909527624024E-01   9.8832235104225707E-01
 1.0114189307585788E+00   1.0329257332604562E+00   1.0512250956569227E+00   1.0645412405094614E+00   1.0724630873193655E+00   1.0724630823556009E+00
 1.0645412329290842E+00   1.0512250845389635E+00   1.0329257204294284E+00   1.0114189174984693E+00   9.7312460001323164E-01   9.2396655163143715E-01
 8.8142911674242963E-01   8.5001319567741596E-01   8.3186014663836116E-01   8.3186015108861111E-01   8.5001320486582821E-01   8.8142913248876198E-01
 9.2396657318713571E-01   9.7312462672297684E-01   1.0250791904450172E+00   1.0746339812022088E+00   1.1172542933449328E+00   1.1488280687763270E+00
 1.1665501757035928E+00   1.1665501653123516E+00   1.1488280502019366E+00   1.1172542669813681E+00   1.0746339511392542E+00   1.0250791601982687E+00
 9.6036706730156651E-01   8.8881141254518747E-01   8.2792636508814488E-01   7.8311762953007158E-01   7.5835093856340763E-01   7.5835094453247232E-01
 7.8311764284793683E-01   8.2792638772698346E-01   8.8881144388148470E-01   9.6036710501770495E-01   1.0362189770899939E+00   1.1092562861229134E+00
 1.1724834550257865E+00   1.2197634725437694E+00   1.2459349871881265E+00   1.2459349720904296E+00   1.2197634448810428E+00   1.1724834152321020E+00
 1.1092562415300791E+00   1.0362189325295845E+00   9.5145855507265920E-01   8.6426378063034104E-01   7.9066779594092940E-01   7.3701436527251674E-01
 7.0826650528405444E-01   7.0826651228607984E-01   7.3701438125321928E-01   7.9066782328351648E-01   8.6426381837167598E-01   9.5145860108033564E-01
 1.0438497980071626E+00   1.1337405987285316E+00   1.2112464991384835E+00   1.2693176597545266E+00   1.3009222852581621E+00   1.3009222673084189E+00
 1.2693176264582777E+00   1.2112464495854425E+00   1.1337405442094821E+00   1.0438497430154818E+00   9.4580853859019498E-01   8.5100039681252038E-01
 7.7172717018018366E-01   7.1442731728688336E-01   6.8383874351498741E-01   6.8383875103602021E-01   7.1442733435788175E-01   7.7172719958058655E-01
 8.5100043777570822E-01   9.4580858921206645E-01   1.0483743994664096E+00   1.1462558563771597E+00   1.2308855575340354E+00   1.2942131474941287E+00
 1.3287329025466865E+00   1.3287328829373080E+00   1.2942131114470572E+00   1.2308855027920580E+00   1.1462557973752496E+00   1.0483743399888972E+00
 9.4848199071154327E-01   8.5653087603205824E-01   7.7935649609545588E-01   7.2344113689855327E-01   6.9360157548818857E-01   6.9360158280914419E-01
 7.2344115356983418E-01   7.7935652472654460E-01   8.5653091576171814E-01   9.4848203957061106E-01   1.0463311446000148E+00   1.1411258193374769E+00
 1.2229962737955473E+00   1.2843419930906814E+00   1.3177569089222732E+00   1.3177568899443708E+00   1.2843419581087552E+00   1.2229962210889624E+00